       8
 i =        1, E =       -45.1117461402
  C         0.8909765169        2.6912766445        2.6912749546
  C        -0.0064338264       -0.0064450207       -0.0064350257
  C         0.8934853797        0.8934980643        0.8934967575
  C        -0.0084664690        1.7912098830        1.7912032406
  C         2.6912680134        2.6912743504        0.8909653229
  C         1.7912014041       -0.0084563868        1.7911979992
  C         2.6912837410        0.8909652198        2.6912769779
  C         1.7912000920        1.7911920230       -0.0084653986
       8
 i =        2, E =       -45.1117863788
  C         0.8930880020        2.6940015571        2.6940002077
  C        -0.0055789020       -0.0055838900       -0.0055791413
  C         0.8946280112        0.8946337815        0.8946336880
  C        -0.0068424803        1.7938880311        1.7938847018
  C         2.6939963815        2.6939996117        0.8930820020
  C         1.7938839423       -0.0068373607        1.7938820370
  C         2.6940048930        0.8930821516        2.6940010662
  C         1.7938826228        1.7938784681       -0.0068424758
       8
 i =        3, E =       -45.1118258267
  C         0.8986358004        2.6992150179        2.6992148749
  C        -0.0021853707       -0.0021809644       -0.0021843946
  C         0.8980902949        0.8980854144        0.8980865521
  C        -0.0017950108        1.7991859868        1.7991879404
  C         2.6992166948        2.6992144524        0.8986391049
  C         1.7991890422       -0.0017986674        1.7991896018
  C         2.6992123144        0.8986396829        2.6992139024
  C         1.7991883880        1.7991910545       -0.0017962472
       8
 i =        4, E =       -45.1118338381
  C         0.9001743752        2.7002301536        2.7002303034
  C        -0.0005811380       -0.0005775407       -0.0005804619
  C         0.8994886521        0.8994845490        0.8994852447
  C        -0.0000870937        1.8002387817        1.8002404653
  C         2.7002320918        2.7002301296        0.9001774504
  C         1.8002413722       -0.0000903515        1.8002420577
  C         2.7002279378        0.9001778963        2.7002295484
  C         1.8002411401        1.8002435835       -0.0000879171
       8
 i =        5, E =       -45.1118355318
  C         0.8999929546        2.6998789592        2.6998789760
  C        -0.0000814448       -0.0000809495       -0.0000813379
  C         0.8998583067        0.8998577045        0.8998577541
  C        -0.0000232224        1.7998844564        1.7998846073
  C         2.6998792508        2.6998789339        0.8999933906
  C         1.7998848330       -0.0000237901        1.7998849013
  C         2.6998786560        0.8999935478        2.6998788663
  C         1.7998847542        1.7998851562       -0.0000234103
       8
 i =        6, E =       -45.1118355315
  C         0.8999929546        2.6998789592        2.6998789760
  C        -0.0000814448       -0.0000809495       -0.0000813379
  C         0.8998583067        0.8998577045        0.8998577541
  C        -0.0000232224        1.7998844564        1.7998846073
  C         2.6998792508        2.6998789339        0.8999933906
  C         1.7998848330       -0.0000237901        1.7998849013
  C         2.6998786560        0.8999935478        2.6998788663
  C         1.7998847542        1.7998851562       -0.0000234103
