       8
 i =        1, E =       -44.9784911236
  C         0.8546315229        2.7231784429        2.7231804585
  C        -0.0233729718       -0.0233918268       -0.0233723434
  C         0.8945734745        0.8945833595        0.8945722859
  C        -0.0516662528        1.7953587130        1.7953480247
  C         2.7231704353        2.7231894905        0.8546312008
  C         1.7953466678       -0.0516482217        1.7953572873
  C         2.7231967603        0.8546215151        2.7231886445
  C         1.7953604136        1.7953484097       -0.0516656022
       8
 i =        2, E =       -44.9797528895
  C         0.8704941885        2.7177734761        2.7177735489
  C        -0.0482497427       -0.0482486207       -0.0482498221
  C         0.8777857903        0.8777847830        0.8777855318
  C        -0.0516918386        1.7942211625        1.7942222774
  C         2.7177740842        2.7177736402        0.8704943645
  C         1.7942227988       -0.0516914674        1.7942226326
  C         2.7177738690        0.8704964321        2.7177746547
  C         1.7942221665        1.7942218841       -0.0516918333
       8
 i =        3, E =       -44.9802573416
  C         0.8679090837        2.7085195407        2.7085187746
  C        -0.0647051162       -0.0647010961       -0.0647053248
  C         0.8612951044        0.8612924941        0.8612956051
  C        -0.0579128916        1.7869485349        1.7869510384
  C         2.7085213926        2.7085171378        0.8679090299
  C         1.7869513051       -0.0579168305        1.7869487444
  C         2.7085156240        0.8679117961        2.7085177058
  C         1.7869480510        1.7869509154       -0.0579129843
       8
 i =        4, E =       -44.9805439179
  C         0.8489605039        2.6850039063        2.6850030227
  C        -0.0910481431       -0.0910433764       -0.0910484082
  C         0.8317963802        0.8317938372        0.8317971880
  C        -0.0793886803        1.7654650606        1.7654674111
  C         2.6850056302        2.6850003395        0.8489605645
  C         1.7654669720       -0.0793950966        1.7654638719
  C         2.6849978746        0.8489618195        2.6849994814
  C         1.7654634590        1.7654673752       -0.0793890814
       8
 i =        5, E =       -44.9808201833
  C         0.8492541129        2.6919364709        2.6919359790
  C        -0.0773190637       -0.0773179283       -0.0773192409
  C         0.8450106219        0.8450096627        0.8450109626
  C        -0.0753491685        1.7706383218        1.7706386667
  C         2.6919367805        2.6919355269        0.8492541160
  C         1.7706389351       -0.0753510363        1.7706380240
  C         2.6919348166        0.8492545453        2.6919352124
  C         1.7706374617        1.7706389714       -0.0753491705
       8
 i =        6, E =       -44.9808434092
  C         0.8463034791        2.6910601902        2.6910601961
  C        -0.0761945660       -0.0761943526       -0.0761945133
  C         0.8457705961        0.8457705620        0.8457704201
  C        -0.0768482915        1.7687884727        1.7687886015
  C         2.6910602505        2.6910601357        0.8463037018
  C         1.7687885950       -0.0768485067        1.7687885789
  C         2.6910600236        0.8463034384        2.6910600290
  C         1.7687885518        1.7687887391       -0.0768483443
       8
 i =        7, E =       -44.9808447757
  C         0.8457242919        2.6906910412        2.6906910602
  C        -0.0766013581       -0.0766014488       -0.0766013970
  C         0.8455600890        0.8455601711        0.8455601503
  C        -0.0770128267        1.7681503414        1.7681502280
  C         2.6906909962        2.6906911074        0.8457242057
  C         1.7681503542       -0.0770127412        1.7681503443
  C         2.6906911360        0.8457242408        2.6906910985
  C         1.7681502248        1.7681502227       -0.0770127665
       8
 i =        8, E =       -44.9808447754
  C         0.8457242919        2.6906910412        2.6906910602
  C        -0.0766013581       -0.0766014488       -0.0766013970
  C         0.8455600890        0.8455601711        0.8455601503
  C        -0.0770128267        1.7681503414        1.7681502280
  C         2.6906909962        2.6906911074        0.8457242057
  C         1.7681503542       -0.0770127412        1.7681503443
  C         2.6906911360        0.8457242408        2.6906910985
  C         1.7681502248        1.7681502227       -0.0770127665
