#ProjectedDOSforatomickindCatiterationstepi=0,E(Fermi)=0.457204a.u.
#MOEigenvalue[a.u.]Occupation,,s,,p,,d
1,-0.383784,2.000000,0.99400558,0.00345142,0.00254301
2,-0.366247,2.000000,0.77477766,0.20597814,0.01924420
3,-0.366247,2.000000,0.77477766,0.20597814,0.01924420
4,-0.366247,2.000000,0.77477772,0.20597807,0.01924420
5,-0.366245,2.000000,0.77477529,0.20598031,0.01924440
6,-0.366245,2.000000,0.77477529,0.20598031,0.01924440
7,-0.366245,2.000000,0.77477535,0.20598025,0.01924440
8,-0.347624,2.000000,0.64925349,0.29594716,0.05479935
9,-0.347624,2.000000,0.64925351,0.29594714,0.05479936
10,-0.347624,2.000000,0.64925351,0.29594714,0.05479936
11,-0.347624,2.000000,0.64927214,0.29591805,0.05480981
12,-0.347624,2.000000,0.64927215,0.29591803,0.05480982
13,-0.347624,2.000000,0.64927215,0.29591803,0.05480982
14,-0.347591,2.000000,0.64346143,0.30553903,0.05099954
15,-0.347591,2.000000,0.64346145,0.30553901,0.05099954
16,-0.347591,2.000000,0.64346145,0.30553901,0.05099954
17,-0.347586,2.000000,0.64344186,0.30556891,0.05098923
18,-0.347586,2.000000,0.64344188,0.30556889,0.05098923
19,-0.347586,2.000000,0.64344188,0.30556889,0.05098923
20,-0.329014,2.000000,0.56194481,0.34386483,0.09419036
21,-0.329014,2.000000,0.56194482,0.34386482,0.09419035
22,-0.329012,2.000000,0.56193476,0.34388468,0.09418056
23,-0.329011,2.000000,0.56194212,0.34386330,0.09419459
24,-0.329010,2.000000,0.56194150,0.34386243,0.09419607
25,-0.329010,2.000000,0.56194151,0.34386243,0.09419607
26,-0.328852,2.000000,0.55424831,0.36177226,0.08397943
27,-0.328842,2.000000,0.55424405,0.36177920,0.08397675
28,-0.320586,2.000000,0.52091612,0.37841576,0.10066811
29,-0.320581,2.000000,0.52090932,0.37842252,0.10066816
30,-0.320581,2.000000,0.52090935,0.37842249,0.10066816
31,-0.302341,2.000000,0.47193268,0.39095876,0.13710856
32,-0.302341,2.000000,0.47193268,0.39095876,0.13710856
33,-0.302341,2.000000,0.47193268,0.39095875,0.13710856
34,-0.302339,2.000000,0.47193199,0.39095977,0.13710824
35,-0.302339,2.000000,0.47193199,0.39095977,0.13710824
36,-0.302339,2.000000,0.47193199,0.39095976,0.13710824
37,-0.302335,2.000000,0.47193656,0.39095612,0.13710732
38,-0.302335,2.000000,0.47193656,0.39095612,0.13710732
39,-0.302335,2.000000,0.47193657,0.39095611,0.13710732
40,-0.302332,2.000000,0.47192628,0.39096697,0.13710675
41,-0.302332,2.000000,0.47192628,0.39096697,0.13710675
42,-0.302332,2.000000,0.47192629,0.39096696,0.13710675
43,-0.294900,2.000000,0.49973641,0.41107443,0.08918916
44,-0.294900,2.000000,0.49973645,0.41107441,0.08918914
45,-0.294889,2.000000,0.49973530,0.41107446,0.08919024
46,-0.284589,2.000000,0.43520165,0.38640626,0.17839209
47,-0.284589,2.000000,0.43520167,0.38640626,0.17839207
48,-0.284589,2.000000,0.43520167,0.38640626,0.17839207
49,-0.284588,2.000000,0.43520503,0.38643789,0.17835707
50,-0.284588,2.000000,0.43520505,0.38643789,0.17835706
51,-0.284588,2.000000,0.43520505,0.38643789,0.17835706
52,-0.284567,2.000000,0.43516188,0.38894040,0.17589772
53,-0.284567,2.000000,0.43516190,0.38894039,0.17589771
54,-0.284567,2.000000,0.43516190,0.38894039,0.17589771
55,-0.284565,2.000000,0.43515755,0.38894622,0.17589624
56,-0.284565,2.000000,0.43515757,0.38894621,0.17589622
57,-0.284565,2.000000,0.43515757,0.38894621,0.17589622
58,-0.276600,2.000000,0.45514193,0.41068341,0.13417466
59,-0.276600,2.000000,0.45514193,0.41068341,0.13417466
60,-0.276600,2.000000,0.45514194,0.41068340,0.13417466
61,-0.276597,2.000000,0.45513780,0.41069011,0.13417209
62,-0.276597,2.000000,0.45513780,0.41069011,0.13417209
63,-0.276597,2.000000,0.45513781,0.41069010,0.13417208
64,-0.276596,2.000000,0.45514380,0.41068200,0.13417420
65,-0.276596,2.000000,0.45514380,0.41068200,0.13417420
66,-0.276596,2.000000,0.45514381,0.41068199,0.13417420
67,-0.276588,2.000000,0.45513473,0.41068973,0.13417554
68,-0.276588,2.000000,0.45513473,0.41068973,0.13417554
69,-0.276588,2.000000,0.45513474,0.41068973,0.13417554
70,-0.260258,2.000000,0.39753451,0.39686873,0.20559676
71,-0.260258,2.000000,0.39753452,0.39686874,0.20559673
72,-0.260257,2.000000,0.39754647,0.39685426,0.20559927
73,-0.259239,2.000000,0.42600850,0.38567979,0.18831171
74,-0.259239,2.000000,0.42600851,0.38567979,0.18831170
75,-0.259239,2.000000,0.42600851,0.38567979,0.18831170
76,-0.259238,2.000000,0.42601175,0.38567358,0.18831467
77,-0.259238,2.000000,0.42601177,0.38567358,0.18831465
78,-0.259238,2.000000,0.42601177,0.38567358,0.18831465
79,-0.258501,2.000000,0.41897990,0.40885027,0.17216983
80,-0.258501,2.000000,0.41897992,0.40885027,0.17216981
81,-0.258501,2.000000,0.41897992,0.40885027,0.17216981
82,-0.258492,2.000000,0.41897699,0.40885332,0.17216969
83,-0.258492,2.000000,0.41897701,0.40885332,0.17216967
84,-0.258492,2.000000,0.41897701,0.40885332,0.17216967
85,-0.245163,2.000000,0.38583128,0.35159247,0.26257625
86,-0.245163,2.000000,0.38583128,0.35159246,0.26257625
87,-0.245163,2.000000,0.38583128,0.35159246,0.26257625
88,-0.245158,2.000000,0.38583349,0.35160307,0.26256344
89,-0.245158,2.000000,0.38583349,0.35160307,0.26256344
90,-0.245158,2.000000,0.38583349,0.35160307,0.26256344
91,-0.233816,2.000000,0.39493729,0.38990528,0.21515744
92,-0.233814,2.000000,0.39494075,0.38989937,0.21515987
93,-0.233814,2.000000,0.39494076,0.38989940,0.21515984
94,-0.232710,2.000000,0.38099196,0.41102613,0.20798191
95,-0.232709,2.000000,0.38098600,0.41104074,0.20797326
96,-0.232709,2.000000,0.38098600,0.41104072,0.20797328
97,-0.220491,2.000000,0.39327606,0.21823798,0.38848596
98,-0.219228,2.000000,0.38681459,0.33494063,0.27824478
99,-0.219228,2.000000,0.38681459,0.33494063,0.27824478
100,-0.219228,2.000000,0.38681459,0.33494063,0.27824478
101,-0.219221,2.000000,0.38680098,0.33492859,0.27827044
102,-0.219221,2.000000,0.38680098,0.33492858,0.27827044
103,-0.219221,2.000000,0.38680098,0.33492858,0.27827044
104,-0.217691,2.000000,0.37669232,0.35166155,0.27164613
105,-0.217691,2.000000,0.37669232,0.35166154,0.27164614
106,-0.217691,2.000000,0.37669232,0.35166154,0.27164614
107,-0.217688,2.000000,0.37668944,0.35167712,0.27163344
108,-0.217688,2.000000,0.37668945,0.35167711,0.27163344
109,-0.217688,2.000000,0.37668945,0.35167711,0.27163344
110,-0.213355,2.000000,0.37061507,0.45103164,0.17835328
111,-0.213355,2.000000,0.37061507,0.45103164,0.17835328
112,-0.213355,2.000000,0.37061510,0.45103168,0.17835323
113,-0.213326,2.000000,0.37061783,0.45104252,0.17833966
114,-0.213326,2.000000,0.37061783,0.45104252,0.17833966
115,-0.213326,2.000000,0.37061785,0.45104255,0.17833960
116,-0.207370,2.000000,0.37797861,0.40457482,0.21744657
117,-0.207370,2.000000,0.37797862,0.40457484,0.21744654
118,-0.207352,2.000000,0.37797890,0.40457820,0.21744290
119,-0.203277,2.000000,0.36231159,0.43235109,0.20533732
120,-0.203277,2.000000,0.36231162,0.43235109,0.20533730
121,-0.203277,2.000000,0.36231162,0.43235109,0.20533730
122,-0.203273,2.000000,0.36231474,0.43234813,0.20533713
123,-0.203273,2.000000,0.36231477,0.43234812,0.20533711
124,-0.203273,2.000000,0.36231477,0.43234812,0.20533711
125,-0.198077,2.000000,0.36621732,0.42976134,0.20402135
126,-0.198077,2.000000,0.36621733,0.42976134,0.20402133
127,-0.198077,2.000000,0.36621733,0.42976134,0.20402133
128,-0.198071,2.000000,0.36621882,0.42975825,0.20402293
129,-0.198071,2.000000,0.36621883,0.42975825,0.20402292
130,-0.198071,2.000000,0.36621883,0.42975825,0.20402292
131,-0.197085,2.000000,0.40013220,0.19230128,0.40756652
132,-0.197085,2.000000,0.40013220,0.19230127,0.40756654
133,-0.196723,2.000000,0.36497394,0.42735061,0.20767546
134,-0.196723,2.000000,0.36497395,0.42735060,0.20767544
135,-0.196723,2.000000,0.36497395,0.42735060,0.20767544
136,-0.196714,2.000000,0.36497440,0.42734998,0.20767562
137,-0.196714,2.000000,0.36497441,0.42734998,0.20767561
138,-0.196714,2.000000,0.36497441,0.42734998,0.20767561
139,-0.193356,2.000000,0.36759843,0.38243241,0.24996916
140,-0.193356,2.000000,0.36759844,0.38243241,0.24996916
141,-0.193354,2.000000,0.36760338,0.38243671,0.24995990
142,-0.193346,2.000000,0.36760441,0.38243058,0.24996501
143,-0.193346,2.000000,0.36760441,0.38243058,0.24996500
144,-0.193339,2.000000,0.36761105,0.38241327,0.24997568
145,-0.192761,2.000000,0.37074005,0.35375120,0.27550875
146,-0.192761,2.000000,0.37074005,0.35375120,0.27550876
147,-0.192761,2.000000,0.37074005,0.35375120,0.27550876
148,-0.192753,2.000000,0.37071960,0.35378259,0.27549781
149,-0.192753,2.000000,0.37071961,0.35378258,0.27549782
150,-0.192753,2.000000,0.37071961,0.35378258,0.27549782
151,-0.188643,2.000000,0.34634844,0.45143940,0.20221216
152,-0.188643,2.000000,0.34634845,0.45143941,0.20221214
153,-0.188643,2.000000,0.34634845,0.45143941,0.20221214
154,-0.188638,2.000000,0.34635478,0.45143325,0.20221198
155,-0.188638,2.000000,0.34635479,0.45143326,0.20221195
156,-0.188638,2.000000,0.34635479,0.45143326,0.20221195
157,-0.184110,2.000000,0.36449584,0.39674390,0.23876026
158,-0.184101,2.000000,0.36448487,0.39676343,0.23875170
159,-0.183079,2.000000,0.36681605,0.38565046,0.24753349
160,-0.183079,2.000000,0.36681605,0.38565047,0.24753348
161,-0.183076,2.000000,0.36681280,0.38566315,0.24752405
162,-0.183076,2.000000,0.36681281,0.38566316,0.24752404
163,-0.182728,2.000000,0.36286080,0.38413849,0.25300071
164,-0.182712,2.000000,0.36287028,0.38411726,0.25301247
165,-0.182712,2.000000,0.36287029,0.38411726,0.25301245
166,-0.182708,2.000000,0.36286459,0.38412191,0.25301350
167,-0.182708,2.000000,0.36286460,0.38412191,0.25301349
168,-0.182699,2.000000,0.36285888,0.38411892,0.25302220
169,-0.170782,2.000000,0.38459874,0.29188481,0.32351645
170,-0.170782,2.000000,0.38459874,0.29188481,0.32351645
171,-0.170782,2.000000,0.38459878,0.29188481,0.32351641
172,-0.170779,2.000000,0.38460113,0.29188239,0.32351648
173,-0.170779,2.000000,0.38460113,0.29188239,0.32351648
174,-0.170779,2.000000,0.38460116,0.29188240,0.32351644
175,-0.169179,2.000000,0.37410074,0.23711778,0.38878149
176,-0.167738,2.000000,0.33759747,0.42855760,0.23384493
177,-0.167732,2.000000,0.33757942,0.42857014,0.23385043
178,-0.167732,2.000000,0.33757942,0.42857015,0.23385043
179,-0.167725,2.000000,0.33756824,0.42856982,0.23386194
180,-0.167725,2.000000,0.33756824,0.42856982,0.23386194
181,-0.167696,2.000000,0.33757138,0.42855860,0.23387002
182,-0.162415,2.000000,0.38469234,0.28862186,0.32668580
183,-0.162415,2.000000,0.38469234,0.28862186,0.32668580
184,-0.162415,2.000000,0.38469236,0.28862186,0.32668578
185,-0.162408,2.000000,0.38468788,0.28862994,0.32668218
186,-0.162408,2.000000,0.38468788,0.28862994,0.32668218
187,-0.162408,2.000000,0.38468791,0.28862994,0.32668215
188,-0.161642,2.000000,0.35388247,0.40311103,0.24300649
189,-0.161642,2.000000,0.35388247,0.40311103,0.24300650
190,-0.161642,2.000000,0.35388247,0.40311103,0.24300650
191,-0.161641,2.000000,0.35387099,0.40312674,0.24300227
192,-0.161641,2.000000,0.35387098,0.40312674,0.24300228
193,-0.161641,2.000000,0.35387098,0.40312674,0.24300228
194,-0.161616,2.000000,0.35388490,0.40310769,0.24300741
195,-0.161616,2.000000,0.35388490,0.40310769,0.24300741
196,-0.161616,2.000000,0.35388490,0.40310769,0.24300741
197,-0.161614,2.000000,0.35389278,0.40309600,0.24301122
198,-0.161614,2.000000,0.35389277,0.40309599,0.24301123
199,-0.161614,2.000000,0.35389277,0.40309599,0.24301123
200,-0.161528,2.000000,0.38161709,0.29881251,0.31957040
201,-0.161528,2.000000,0.38161709,0.29881251,0.31957040
202,-0.161528,2.000000,0.38161711,0.29881251,0.31957038
203,-0.161523,2.000000,0.38161559,0.29881688,0.31956753
204,-0.161523,2.000000,0.38161559,0.29881688,0.31956753
205,-0.161523,2.000000,0.38161561,0.29881688,0.31956752
206,-0.139541,2.000000,0.37459904,0.29375497,0.33164599
207,-0.139541,2.000000,0.37459904,0.29375497,0.33164599
208,-0.139541,2.000000,0.37459905,0.29375497,0.33164598
209,-0.139534,2.000000,0.37460478,0.29375047,0.33164476
210,-0.139534,2.000000,0.37460478,0.29375047,0.33164476
211,-0.139534,2.000000,0.37460479,0.29375047,0.33164474
212,-0.137891,2.000000,0.35558171,0.39026306,0.25415523
213,-0.137891,2.000000,0.35558171,0.39026306,0.25415523
214,-0.137891,2.000000,0.35558172,0.39026306,0.25415522
215,-0.137886,2.000000,0.35558151,0.39026226,0.25415623
216,-0.137886,2.000000,0.35558151,0.39026226,0.25415623
217,-0.137886,2.000000,0.35558151,0.39026227,0.25415622
218,-0.137867,2.000000,0.35558860,0.39025222,0.25415918
219,-0.137867,2.000000,0.35558860,0.39025222,0.25415918
220,-0.137867,2.000000,0.35558861,0.39025223,0.25415917
221,-0.137853,2.000000,0.35559180,0.39024998,0.25415822
222,-0.137853,2.000000,0.35559180,0.39024998,0.25415822
223,-0.137853,2.000000,0.35559180,0.39024999,0.25415821
224,-0.119080,2.000000,0.15829046,0.81094137,0.03076816
225,-0.106047,2.000000,0.31297635,0.47871346,0.20831019
226,-0.105175,2.000000,0.37708804,0.37019400,0.25271795
227,-0.105175,2.000000,0.37708807,0.37019401,0.25271791
228,-0.105175,2.000000,0.37708807,0.37019401,0.25271791
229,-0.105170,2.000000,0.37709418,0.37018636,0.25271946
230,-0.105170,2.000000,0.37709421,0.37018637,0.25271942
231,-0.105170,2.000000,0.37709421,0.37018637,0.25271942
232,-0.099553,2.000000,0.31625934,0.46766590,0.21607476
233,-0.099553,2.000000,0.31625935,0.46766589,0.21607476
234,-0.095074,2.000000,0.35558482,0.40535758,0.23905760
235,-0.095074,2.000000,0.35558485,0.40535760,0.23905756
236,-0.095074,2.000000,0.35558485,0.40535760,0.23905756
237,-0.095069,2.000000,0.35558360,0.40536101,0.23905539
238,-0.095069,2.000000,0.35558363,0.40536103,0.23905535
239,-0.095069,2.000000,0.35558363,0.40536103,0.23905535
240,-0.090536,2.000000,0.32719496,0.46210955,0.21069548
241,-0.090536,2.000000,0.32719496,0.46210955,0.21069548
242,-0.090536,2.000000,0.32719497,0.46210957,0.21069545
243,-0.090516,2.000000,0.32718570,0.46210364,0.21071065
244,-0.090516,2.000000,0.32718570,0.46210364,0.21071065
245,-0.090516,2.000000,0.32718572,0.46210366,0.21071062
246,-0.090438,2.000000,0.32780525,0.46046058,0.21173418
247,-0.090438,2.000000,0.32780525,0.46046058,0.21173418
248,-0.090438,2.000000,0.32780526,0.46046059,0.21173414
249,-0.090410,2.000000,0.32779179,0.46046423,0.21174397
250,-0.090410,2.000000,0.32779179,0.46046423,0.21174397
251,-0.090410,2.000000,0.32779181,0.46046425,0.21174394
252,-0.089349,2.000000,0.12442715,0.85212450,0.02344835
253,-0.089349,2.000000,0.12442715,0.85212449,0.02344836
254,-0.084811,2.000000,0.17277267,0.72113673,0.10609061
255,-0.084811,2.000000,0.17277267,0.72113672,0.10609061
256,-0.084811,2.000000,0.17277267,0.72113672,0.10609061
257,-0.084801,2.000000,0.17277909,0.72112668,0.10609423
258,-0.084801,2.000000,0.17277910,0.72112667,0.10609423
259,-0.084801,2.000000,0.17277910,0.72112667,0.10609423
260,-0.079407,2.000000,0.34715053,0.45134940,0.20150007
261,-0.079407,2.000000,0.34715054,0.45134941,0.20150005
262,-0.079395,2.000000,0.34720895,0.45129292,0.20149813
263,-0.079247,2.000000,0.34791937,0.44920135,0.20287929
264,-0.079243,2.000000,0.34785640,0.44925441,0.20288918
265,-0.079243,2.000000,0.34785640,0.44925444,0.20288916
266,-0.079069,2.000000,0.29838198,0.49345500,0.20816302
267,-0.079069,2.000000,0.29838199,0.49345502,0.20816299
268,-0.076857,2.000000,0.13121557,0.83035265,0.03843178
269,-0.073460,2.000000,0.30525095,0.48374254,0.21100651
270,-0.067962,2.000000,0.30902817,0.47905227,0.21191955
271,-0.067962,2.000000,0.30902817,0.47905227,0.21191955
272,-0.067962,2.000000,0.30902819,0.47905231,0.21191950
273,-0.067937,2.000000,0.30902276,0.47903838,0.21193886
274,-0.067937,2.000000,0.30902276,0.47903838,0.21193886
275,-0.067937,2.000000,0.30902278,0.47903842,0.21193880
276,-0.067859,2.000000,0.30971329,0.47695172,0.21333498
277,-0.067859,2.000000,0.30971329,0.47695172,0.21333498
278,-0.067859,2.000000,0.30971331,0.47695174,0.21333495
279,-0.067852,2.000000,0.30970360,0.47696509,0.21333131
280,-0.067852,2.000000,0.30970360,0.47696509,0.21333131
281,-0.067852,2.000000,0.30970362,0.47696510,0.21333127
282,-0.061611,2.000000,0.16688382,0.69122187,0.14189431
283,-0.061611,2.000000,0.16688382,0.69122187,0.14189431
284,-0.061611,2.000000,0.16688383,0.69122186,0.14189432
285,-0.061583,2.000000,0.16696664,0.69109146,0.14194190
286,-0.061583,2.000000,0.16696664,0.69109146,0.14194190
287,-0.061583,2.000000,0.16696664,0.69109145,0.14194191
288,-0.059834,2.000000,0.29167694,0.50633291,0.20199015
289,-0.059834,2.000000,0.29167695,0.50633292,0.20199013
290,-0.059834,2.000000,0.29167695,0.50633292,0.20199013
291,-0.059829,2.000000,0.29168205,0.50632737,0.20199057
292,-0.059829,2.000000,0.29168206,0.50632738,0.20199056
293,-0.059829,2.000000,0.29168206,0.50632738,0.20199056
294,-0.057926,2.000000,0.14829946,0.73391628,0.11778427
295,-0.057926,2.000000,0.14829946,0.73391627,0.11778428
296,-0.057926,2.000000,0.14829946,0.73391627,0.11778428
297,-0.057914,2.000000,0.14830763,0.73390221,0.11779016
298,-0.057914,2.000000,0.14830763,0.73390220,0.11779017
299,-0.057914,2.000000,0.14830763,0.73390220,0.11779017
300,-0.056854,2.000000,0.14809546,0.73622809,0.11567645
301,-0.056854,2.000000,0.14809546,0.73622809,0.11567645
302,-0.056854,2.000000,0.14809546,0.73622809,0.11567645
303,-0.056843,2.000000,0.14809791,0.73622323,0.11567886
304,-0.056843,2.000000,0.14809791,0.73622323,0.11567886
305,-0.056843,2.000000,0.14809791,0.73622323,0.11567886
306,-0.056298,2.000000,0.14330968,0.75280368,0.10388664
307,-0.056298,2.000000,0.14330968,0.75280366,0.10388666
308,-0.056298,2.000000,0.14330968,0.75280366,0.10388666
309,-0.056291,2.000000,0.14331082,0.75280381,0.10388537
310,-0.056291,2.000000,0.14331082,0.75280379,0.10388538
311,-0.056291,2.000000,0.14331082,0.75280379,0.10388538
312,-0.053076,2.000000,0.33562016,0.44842407,0.21595577
313,-0.053070,2.000000,0.33562815,0.44841500,0.21595686
314,-0.053070,2.000000,0.33562815,0.44841501,0.21595684
315,-0.052625,2.000000,0.33524956,0.44936945,0.21538098
316,-0.052625,2.000000,0.33524958,0.44936945,0.21538097
317,-0.052607,2.000000,0.33526252,0.44935352,0.21538396
318,-0.046855,2.000000,0.26841762,0.53834158,0.19324080
319,-0.046855,2.000000,0.26841761,0.53834159,0.19324080
320,-0.046855,2.000000,0.26841761,0.53834159,0.19324080
321,-0.046847,2.000000,0.26842564,0.53833168,0.19324267
322,-0.046847,2.000000,0.26842564,0.53833169,0.19324267
323,-0.046847,2.000000,0.26842564,0.53833169,0.19324267
324,-0.041573,2.000000,0.15583603,0.70845353,0.13571044
325,-0.041573,2.000000,0.15583604,0.70845353,0.13571043
326,-0.041573,2.000000,0.15583604,0.70845353,0.13571043
327,-0.041542,2.000000,0.15589086,0.70836770,0.13574144
328,-0.041542,2.000000,0.15589087,0.70836770,0.13574144
329,-0.041542,2.000000,0.15589087,0.70836770,0.13574144
330,-0.033485,2.000000,0.15228759,0.70232838,0.14538403
331,-0.033485,2.000000,0.15228759,0.70232838,0.14538403
332,-0.033485,2.000000,0.15228759,0.70232838,0.14538403
333,-0.033454,2.000000,0.15232291,0.70229220,0.14538489
334,-0.033454,2.000000,0.15232291,0.70229220,0.14538489
335,-0.033454,2.000000,0.15232291,0.70229220,0.14538489
336,-0.028697,2.000000,0.22945145,0.60009341,0.17045514
337,-0.028697,2.000000,0.22945146,0.60009343,0.17045511
338,-0.028692,2.000000,0.22946703,0.60005723,0.17047574
339,-0.028686,2.000000,0.22944456,0.60008438,0.17047106
340,-0.028686,2.000000,0.22944457,0.60008439,0.17047104
341,-0.028659,2.000000,0.22944733,0.60009985,0.17045282
342,-0.017119,2.000000,0.27240107,0.55449715,0.17310178
343,-0.017119,2.000000,0.27240107,0.55449716,0.17310177
344,-0.017119,2.000000,0.27240107,0.55449716,0.17310177
345,-0.017117,2.000000,0.27241553,0.55449412,0.17309035
346,-0.017117,2.000000,0.27241553,0.55449413,0.17309035
347,-0.017117,2.000000,0.27241553,0.55449413,0.17309035
348,-0.017111,2.000000,0.27242189,0.55448688,0.17309123
349,-0.017111,2.000000,0.27242190,0.55448688,0.17309122
350,-0.017111,2.000000,0.27242190,0.55448688,0.17309122
351,-0.017108,2.000000,0.27241211,0.55448456,0.17310333
352,-0.017108,2.000000,0.27241211,0.55448457,0.17310332
353,-0.017108,2.000000,0.27241211,0.55448457,0.17310332
354,-0.014187,2.000000,0.16974300,0.66886559,0.16139142
355,-0.014187,2.000000,0.16974300,0.66886559,0.16139142
356,-0.014187,2.000000,0.16974301,0.66886555,0.16139144
357,-0.014143,2.000000,0.16975913,0.66882422,0.16141666
358,-0.014143,2.000000,0.16975913,0.66882422,0.16141666
359,-0.014143,2.000000,0.16975914,0.66882418,0.16141668
360,-0.013011,2.000000,0.19297659,0.66189165,0.14513176
361,-0.013007,2.000000,0.19295965,0.66189165,0.14514870
362,-0.013007,2.000000,0.19295966,0.66189164,0.14514870
363,-0.013003,2.000000,0.19294887,0.66191707,0.14513406
364,-0.013003,2.000000,0.19294887,0.66191707,0.14513406
365,-0.012975,2.000000,0.19293735,0.66190636,0.14515629
366,-0.012305,2.000000,0.20125014,0.64437506,0.15437480
367,-0.012279,2.000000,0.20123660,0.64437221,0.15439119
368,-0.012279,2.000000,0.20123661,0.64437221,0.15439118
369,-0.012278,2.000000,0.20118032,0.64441666,0.15440302
370,-0.012276,2.000000,0.20121838,0.64438501,0.15439661
371,-0.012276,2.000000,0.20121838,0.64438501,0.15439660
372,-0.007537,2.000000,0.18827726,0.64394482,0.16777792
373,-0.007537,2.000000,0.18827726,0.64394484,0.16777791
374,-0.007527,2.000000,0.18827596,0.64395262,0.16777142
375,-0.007527,2.000000,0.18827596,0.64395264,0.16777141
376,-0.006672,2.000000,0.19186310,0.63642906,0.17170785
377,-0.006660,2.000000,0.19185717,0.63643958,0.17170325
378,-0.002752,2.000000,0.25200790,0.56843275,0.17955935
379,-0.002752,2.000000,0.25200790,0.56843275,0.17955935
380,-0.002752,2.000000,0.25200790,0.56843275,0.17955935
381,-0.002747,2.000000,0.25200505,0.56842964,0.17956531
382,-0.002747,2.000000,0.25200505,0.56842964,0.17956531
383,-0.002747,2.000000,0.25200505,0.56842964,0.17956531
384,-0.002746,2.000000,0.25200915,0.56842574,0.17956510
385,-0.002746,2.000000,0.25200915,0.56842574,0.17956510
386,-0.002746,2.000000,0.25200916,0.56842574,0.17956510
387,-0.002737,2.000000,0.25200672,0.56842728,0.17956600
388,-0.002737,2.000000,0.25200672,0.56842728,0.17956600
389,-0.002737,2.000000,0.25200672,0.56842728,0.17956600
390,0.024736,2.000000,0.23975959,0.60445664,0.15578377
391,0.024736,2.000000,0.23975959,0.60445664,0.15578377
392,0.024736,2.000000,0.23975960,0.60445664,0.15578376
393,0.024747,2.000000,0.23979892,0.60441740,0.15578368
394,0.024747,2.000000,0.23979892,0.60441740,0.15578368
395,0.024747,2.000000,0.23979893,0.60441740,0.15578367
396,0.028095,2.000000,0.16571560,0.65137872,0.18290568
397,0.028095,2.000000,0.16571562,0.65137872,0.18290567
398,0.028095,2.000000,0.16571562,0.65137872,0.18290567
399,0.028098,2.000000,0.16571783,0.65137935,0.18290282
400,0.028098,2.000000,0.16571784,0.65137935,0.18290281
401,0.028098,2.000000,0.16571784,0.65137935,0.18290281
402,0.030901,2.000000,0.14299210,0.68801287,0.16899503
403,0.030901,2.000000,0.14299210,0.68801287,0.16899503
404,0.030901,2.000000,0.14299207,0.68801291,0.16899502
405,0.030902,2.000000,0.14316276,0.68785710,0.16898014
406,0.030902,2.000000,0.14316276,0.68785710,0.16898014
407,0.030902,2.000000,0.14316273,0.68785715,0.16898013
408,0.031728,2.000000,0.27517323,0.56581842,0.15900835
409,0.031728,2.000000,0.27517323,0.56581842,0.15900835
410,0.031728,2.000000,0.27517326,0.56581840,0.15900834
411,0.031742,2.000000,0.27502186,0.56595112,0.15902702
412,0.031742,2.000000,0.27502186,0.56595112,0.15902702
413,0.031742,2.000000,0.27502188,0.56595110,0.15902702
414,0.033297,2.000000,0.14554505,0.68389260,0.17056235
415,0.033297,2.000000,0.14554506,0.68389260,0.17056234
416,0.033297,2.000000,0.14554506,0.68389260,0.17056234
417,0.033310,2.000000,0.14554955,0.68388377,0.17056668
418,0.033310,2.000000,0.14554956,0.68388377,0.17056667
419,0.033310,2.000000,0.14554956,0.68388377,0.17056667
420,0.033731,2.000000,0.19331325,0.64603890,0.16064785
421,0.033731,2.000000,0.19331327,0.64603888,0.16064785
422,0.033750,2.000000,0.19333267,0.64601332,0.16065401
423,0.042953,2.000000,0.27445266,0.55619362,0.16935372
424,0.042953,2.000000,0.27445266,0.55619362,0.16935372
425,0.042953,2.000000,0.27445268,0.55619361,0.16935371
426,0.042960,2.000000,0.27444666,0.55620249,0.16935085
427,0.042960,2.000000,0.27444666,0.55620249,0.16935085
428,0.042960,2.000000,0.27444667,0.55620248,0.16935085
429,0.044459,2.000000,0.23011881,0.59061437,0.17926682
430,0.044459,2.000000,0.23011882,0.59061437,0.17926681
431,0.044474,2.000000,0.23011570,0.59062058,0.17926372
432,0.049575,2.000000,0.26970075,0.54898096,0.18131830
433,0.049575,2.000000,0.26970075,0.54898096,0.18131830
434,0.049575,2.000000,0.26970078,0.54898095,0.18131827
435,0.049658,2.000000,0.26972241,0.54895403,0.18132356
436,0.049658,2.000000,0.26972241,0.54895403,0.18132356
437,0.049658,2.000000,0.26972244,0.54895403,0.18132353
438,0.049885,2.000000,0.17709012,0.65108953,0.17182035
439,0.049885,2.000000,0.17709012,0.65108953,0.17182035
440,0.049894,2.000000,0.17709337,0.65108042,0.17182621
441,0.052789,2.000000,0.04403104,0.77944197,0.17652698
442,0.052789,2.000000,0.04403104,0.77944197,0.17652698
443,0.052789,2.000000,0.04403104,0.77944200,0.17652695
444,0.052799,2.000000,0.04405121,0.77941090,0.17653788
445,0.052799,2.000000,0.04405121,0.77941090,0.17653788
446,0.052799,2.000000,0.04405121,0.77941093,0.17653786
447,0.052810,2.000000,0.04402624,0.77946857,0.17650518
448,0.052810,2.000000,0.04402624,0.77946857,0.17650518
449,0.052810,2.000000,0.04402624,0.77946860,0.17650515
450,0.052825,2.000000,0.04403018,0.77946151,0.17650830
451,0.052825,2.000000,0.04403018,0.77946151,0.17650830
452,0.052825,2.000000,0.04403018,0.77946154,0.17650827
453,0.053577,2.000000,0.04592120,0.78397814,0.17010066
454,0.053577,2.000000,0.04592120,0.78397813,0.17010067
455,0.053577,2.000000,0.04592120,0.78397813,0.17010067
456,0.053583,2.000000,0.04591067,0.78398263,0.17010670
457,0.053583,2.000000,0.04591066,0.78398262,0.17010671
458,0.053583,2.000000,0.04591066,0.78398262,0.17010671
459,0.053692,2.000000,0.15598295,0.65749441,0.18652264
460,0.053692,2.000000,0.15598298,0.65749441,0.18652260
461,0.053692,2.000000,0.15598298,0.65749441,0.18652260
462,0.053702,2.000000,0.15598236,0.65748831,0.18652934
463,0.053702,2.000000,0.15598238,0.65748831,0.18652930
464,0.053702,2.000000,0.15598238,0.65748831,0.18652930
465,0.055789,2.000000,0.13392949,0.69649741,0.16957309
466,0.055789,2.000000,0.13392946,0.69649744,0.16957310
467,0.055789,2.000000,0.13392946,0.69649744,0.16957310
468,0.055792,2.000000,0.13394587,0.69648086,0.16957326
469,0.055792,2.000000,0.13394584,0.69648089,0.16957327
470,0.055792,2.000000,0.13394584,0.69648089,0.16957327
471,0.058200,2.000000,0.17203041,0.64362511,0.18434449
472,0.058200,2.000000,0.17203043,0.64362512,0.18434445
473,0.058200,2.000000,0.17203043,0.64362512,0.18434445
474,0.058210,2.000000,0.17203192,0.64362391,0.18434417
475,0.058210,2.000000,0.17203194,0.64362392,0.18434414
476,0.058210,2.000000,0.17203194,0.64362392,0.18434414
477,0.059450,2.000000,0.20674112,0.61282559,0.18043329
478,0.059471,2.000000,0.20675494,0.61280209,0.18044296
479,0.059471,2.000000,0.20675495,0.61280208,0.18044298
480,0.063800,2.000000,0.04905381,0.76572657,0.18521961
481,0.063800,2.000000,0.04905382,0.76572658,0.18521960
482,0.063800,2.000000,0.04905382,0.76572658,0.18521960
483,0.063825,2.000000,0.04903209,0.76573955,0.18522836
484,0.063825,2.000000,0.04903210,0.76573956,0.18522835
485,0.063825,2.000000,0.04903210,0.76573956,0.18522835
486,0.063830,2.000000,0.04901850,0.76578392,0.18519758
487,0.063830,2.000000,0.04901850,0.76578393,0.18519757
488,0.063830,2.000000,0.04901850,0.76578393,0.18519757
489,0.063834,2.000000,0.04902631,0.76577181,0.18520188
490,0.063834,2.000000,0.04902631,0.76577182,0.18520187
491,0.063834,2.000000,0.04902631,0.76577182,0.18520187
492,0.072667,2.000000,0.00604839,0.81966264,0.17428897
493,0.072667,2.000000,0.00604839,0.81966265,0.17428896
494,0.072680,2.000000,0.00605142,0.81965521,0.17429337
495,0.076330,2.000000,0.00312242,0.81947488,0.17740271
496,0.076363,2.000000,0.00312071,0.81945619,0.17742310
497,0.076363,2.000000,0.00312071,0.81945619,0.17742311
498,0.081678,2.000000,0.01214737,0.80381516,0.18403747
499,0.081678,2.000000,0.01214737,0.80381516,0.18403747
500,0.081689,2.000000,0.01214319,0.80381138,0.18404542
501,0.084885,2.000000,0.00133345,0.81429375,0.18437280
502,0.084918,2.000000,0.00133208,0.81427147,0.18439645
503,0.084918,2.000000,0.00133208,0.81427147,0.18439645
504,0.090781,2.000000,0.06660096,0.74979804,0.18360100
505,0.090781,2.000000,0.06660098,0.74979802,0.18360099
506,0.090805,2.000000,0.06660769,0.74977768,0.18361462
507,0.100864,2.000000,0.05341146,0.75670683,0.18988171
508,0.100892,2.000000,0.05341506,0.75668826,0.18989668
509,0.100892,2.000000,0.05341506,0.75668824,0.18989669
510,0.105193,2.000000,0.11122379,0.72236488,0.16641133
511,0.105211,2.000000,0.11122289,0.72236306,0.16641405
512,0.106481,2.000000,0.10215073,0.72125996,0.17658931
513,0.106482,2.000000,0.10213660,0.72127007,0.17659333
514,0.106482,2.000000,0.10213661,0.72127006,0.17659333
515,0.106525,2.000000,0.10212050,0.72126761,0.17661189
516,0.106525,2.000000,0.10212050,0.72126760,0.17661189
517,0.106562,2.000000,0.10213713,0.72124092,0.17662195
518,0.106562,2.000000,0.01516924,0.87978988,0.10504088
519,0.106562,2.000000,0.01516924,0.87978988,0.10504088
520,0.106562,2.000000,0.01516923,0.87978987,0.10504090
521,0.106640,2.000000,0.01521992,0.87962595,0.10515413
522,0.106640,2.000000,0.01521992,0.87962595,0.10515413
523,0.106640,2.000000,0.01521991,0.87962594,0.10515415
524,0.106661,2.000000,0.00951919,0.88663575,0.10384506
525,0.106661,2.000000,0.00951919,0.88663575,0.10384506
526,0.106661,2.000000,0.00951918,0.88663575,0.10384507
527,0.106710,2.000000,0.00953934,0.88655071,0.10390995
528,0.106710,2.000000,0.00953934,0.88655071,0.10390995
529,0.106710,2.000000,0.00953932,0.88655071,0.10390997
530,0.111642,2.000000,0.09699058,0.74065092,0.16235850
531,0.111642,2.000000,0.09699058,0.74065097,0.16235845
532,0.111656,2.000000,0.09699755,0.74063668,0.16236577
533,0.111656,2.000000,0.09699755,0.74063673,0.16236572
534,0.114716,2.000000,0.07246264,0.73774467,0.18979269
535,0.114716,2.000000,0.07246267,0.73774467,0.18979266
536,0.114718,2.000000,0.07245693,0.73774599,0.18979708
537,0.115361,2.000000,0.01506779,0.87318591,0.11174631
538,0.115361,2.000000,0.01506780,0.87318592,0.11174628