       8
 i =        1, E =       -45.1126033615
  C         0.8636044825        2.7184631455        2.7184655944
  C        -0.0212994863       -0.0213039098       -0.0213014498
  C         0.8948930040        0.8948964492        0.8948933229
  C        -0.0441923513        1.7957862767        1.7957856802
  C         2.7184629267        2.7184680696        0.8636049856
  C         1.7957829996       -0.0441873786        1.7957869204
  C         2.7184686997        0.8636023320        2.7184654568
  C         1.7957885985        1.7957838727       -0.0441916257
       8
 i =        2, E =       -45.1132499703
  C         0.8754007791        2.7203666832        2.7203673902
  C        -0.0367444635       -0.0367460410       -0.0367444815
  C         0.8857950316        0.8857957678        0.8857951575
  C        -0.0431059737        1.7994137131        1.7994129240
  C         2.7203662276        2.7203681917        0.8754008186
  C         1.7994125964       -0.0431041174        1.7994134172
  C         2.7203688291        0.8754001279        2.7203674741
  C         1.7994138752        1.7994126776       -0.0431056980
       8
 i =        3, E =       -45.1132823678
  C         0.8783928458        2.7198672049        2.7198673638
  C        -0.0395690942       -0.0395695641       -0.0395691240
  C         0.8820224817        0.8820225509        0.8820225337
  C        -0.0411948491        1.7999151651        1.7999150094
  C         2.7198669356        2.7198675347        0.8783928584
  C         1.7999149584       -0.0411942878        1.7999150334
  C         2.7198678232        0.8783928263        2.7198673946
  C         1.7999150409        1.7999148156       -0.0411948334
       8
 i =        4, E =       -45.1132882399
  C         0.8795944057        2.7194958674        2.7194958852
  C        -0.0408275038       -0.0408274326       -0.0408275194
  C         0.8796107267        0.8796105919        0.8796106578
  C        -0.0402062767        1.7996729597        1.7996730827
  C         2.7194959129        2.7194958671        0.8795944464
  C         1.7996730472       -0.0402063177        1.7996729589
  C         2.7194957970        0.8795945422        2.7194958744
  C         1.7996729382        1.7996730696       -0.0402062561
       8
 i =        5, E =       -45.1132891694
  C         0.8794171608        2.7192352717        2.7192352554
  C        -0.0410357705       -0.0410356845       -0.0410357623
  C         0.8790736182        0.8790735451        0.8790735896
  C        -0.0404504629        1.7992974571        1.7992975204
  C         2.7192352992        2.7192352320        0.8794171955
  C         1.7992975051       -0.0404505349        1.7992974427
  C         2.7192351704        0.8794172439        2.7192352409
  C         1.7992974371        1.7992975237       -0.0404504521
       8
 i =        6, E =       -45.1132891697
  C         0.8794171608        2.7192352717        2.7192352554
  C        -0.0410357705       -0.0410356845       -0.0410357623
  C         0.8790736182        0.8790735451        0.8790735896
  C        -0.0404504629        1.7992974571        1.7992975204
  C         2.7192352992        2.7192352320        0.8794171955
  C         1.7992975051       -0.0404505349        1.7992974427
  C         2.7192351704        0.8794172439        2.7192352409
  C         1.7992974371        1.7992975237       -0.0404504521
