       8
 i =        1, E =       -44.9743286852
  C         0.8770225853        2.7040756147        2.7040760706
  C        -0.0157192095       -0.0157288958       -0.0157211255
  C         0.8936064856        0.8936157105        0.8936089210
  C        -0.0284535387        1.7934118535        1.7934110045
  C         2.7040718138        2.7040793452        0.8770206111
  C         1.7934057626       -0.0284433442        1.7934086979
  C         2.7040828418        0.8770139164        2.7040785854
  C         1.7934133701        1.7934057549       -0.0284526522
       8
 i =        2, E =       -44.9744812716
  C         0.8836199150        2.7068567996        2.7068569056
  C        -0.0200263599       -0.0200267956       -0.0200263291
  C         0.8911655491        0.8911654900        0.8911656391
  C        -0.0257017169        1.7967172093        1.7967167697
  C         2.7068560868        2.7068569587        0.8836195910
  C         1.7967169963       -0.0257006528        1.7967171577
  C         2.7068578693        0.8836200617        2.7068570164
  C         1.7967168390        1.7967163959       -0.0257017258
       8
 i =        3, E =       -44.9746200073
  C         0.8936293964        2.7123968163        2.7123963431
  C        -0.0206626253       -0.0206582408       -0.0206617077
  C         0.8907178467        0.8907131000        0.8907166772
  C        -0.0181958013        1.8027168712        1.8027170315
  C         2.7123980656        2.7123948362        0.8936302123
  C         1.8027199726       -0.0182002716        1.8027183617
  C         2.7123936878        0.8936340532        2.7123954104
  C         1.8027157217        1.8027195909       -0.0181963178
       8
 i =        4, E =       -44.9721150374
  C         0.9691528393        2.7597413545        2.7597386541
  C        -0.0115360817       -0.0115039353       -0.0115303582
  C         0.8997743070        0.8997436950        0.8997658265
  C         0.0425311235        1.8525229244        1.8525259450
  C         2.7597543557        2.7597288770        0.9691600413
  C         1.8525431945        0.0424956567        1.8525330050
  C         2.7597150867        0.9691816643        2.7597308683
  C         1.8525180572        1.8525449401        0.0425281230
       8
 i =        5, E =       -44.9748056675
  C         0.9177810112        2.7290232010        2.7290215100
  C        -0.0131580094       -0.0131471343       -0.0131559600
  C         0.8977675197        0.8977566387        0.8977646822
  C         0.0017950197        1.8199791089        1.8199800865
  C         2.7290272652        2.7290182527        0.9177833498
  C         1.8199865804        0.0017826434        1.8199826226
  C         2.7290135645        0.9177916761        2.7290193454
  C         1.8199766877        1.8199870109        0.0017939622
       8
 i =        6, E =       -44.9741358385
  C         0.8610512555        2.6957233191        2.6957261870
  C        -0.0172381421       -0.0172494978       -0.0172391554
  C         0.8921510997        0.8921635314        0.8921548797
  C        -0.0427063671        1.7850835577        1.7850784941
  C         2.6957162752        2.6957296365        0.8610476101
  C         1.7850722637       -0.0426906812        1.7850780135
  C         2.6957367174        0.8610391915        2.6957271098
  C         1.7850843377        1.7850701488       -0.0427060167
       8
 i =        7, E =       -44.9744123416
  C         0.8793286162        2.7051291306        2.7051296028
  C        -0.0172013972       -0.0172058371       -0.0172018411
  C         0.8930870991        0.8930912167        0.8930882744
  C        -0.0291600794        1.7949145557        1.7949121974
  C         2.7051260485        2.7051314104        0.8793270832
  C         1.7949102993       -0.0291545974        1.7949125623
  C         2.7051337964        0.8793249462        2.7051301833
  C         1.7949140875        1.7949096459       -0.0291600315
       8
 i =        8, E =       -44.9230895714
  C         1.1027514819        2.6522458024        2.6521240536
  C        -0.2671609825       -0.2672058371       -0.2671444133
  C         0.8163214184        0.8161751172        0.8162332434
  C        -0.1862712779        1.7162710365        1.7162823474
  C         2.6522715833        2.6521832236        1.1027477557
  C         1.7163276684       -0.1865908807        1.7163230601
  C         2.6520336787        1.1029174609        2.6521163336
  C         1.7161592679        1.7164367568       -0.1862618170
       8
 i =        9, E =       -44.9737772710
  C         0.9413268133        2.7376913918        2.7376951098
  C        -0.0172429161       -0.0172058371       -0.0172392093
  C         0.8923648872        0.8923411871        0.8923602388
  C         0.0245395087        1.8285569910        1.8285704166
  C         2.7377112643        2.7376742737        0.9413337127
  C         1.8285805992        0.0245052941        1.8285626099
  C         2.7376621302        0.9413563237        2.7376802942
  C         1.8285588510        1.8285791160        0.0245364877
       8
 i =       10, E =       -44.6231623293
  C         0.8235801702        2.8241624184        2.8241387345
  C         0.2323959074        0.2323558757        0.2323334564
  C         0.9701211472        0.9701551222        0.9701517555
  C         0.2742070066        1.9580206319        1.9580171317
  C         2.8241083811        2.8242351391        0.8236149434
  C         1.9580557481        0.2745052941        1.9580821949
  C         2.8243185351        0.8234720389        2.8243272351
  C         1.9580869513        1.9580146031        0.2742205187
       8
 i =       11, E =       -44.5135247944
  C         0.5747409331        2.7562279881        2.7527848243
  C         0.3726125596        0.3713961338        0.3755749748
  C         1.0306950486        1.0317328395        1.0276618688
  C         0.2463240807        1.9271874425        1.9300067404
  C         2.7521677368        2.7533220337        0.5771014130
  C         1.9268288164        0.2474624634        1.9291877162
  C         2.7565465301        0.5734720389        2.7539816835
  C         1.9308891828        1.9301263465        0.2445697510
       8
 i =       12, E =       -44.5763665770
  C         0.4681397206        2.6156309933        2.6156709070
  C         0.2625278597        0.2613312872        0.2611133574
  C         1.0059487327        1.0065436801        1.0026227594
  C        -0.0035429582        1.7763276157        1.7805615080
  C         2.6169562811        2.6180492881        0.4691297450
  C         1.7761051318       -0.0025375366        1.7804049104
  C         2.6159996938        0.4672060522        2.6168235303
  C         1.7824074538        1.7821478926       -0.0016370684
       8
 i =       13, E =       -44.6956471084
  C         0.7181397206        2.7138802210        2.7621324500
  C         0.2732997988        0.2639355719        0.1621321103
  C         1.0004797704        1.0112365235        0.9745400110
  C         0.1541838823        1.8631206471        1.9546899298
  C         2.8084926778        2.8152210019        0.7107628294
  C         1.8578555752        0.1597559133        1.9425651484
  C         2.7126316144        0.7048799131        2.7671343107
  C         1.9847590398        1.9777806893        0.2358990077
       8
 i =       14, E =       -44.8024805189
  C         0.8550200374        2.7298611285        2.8778647725
  C         0.3316878790        0.3045096572       -0.0003509502
  C         1.0500667045        1.0713212813        0.9577031337
  C         0.2713980053        1.8388718017        2.1584755984
  C         3.0101338151        3.0228417462        0.7829866085
  C         1.8310547546        0.2787767742        2.1186217894
  C         2.7109918165        0.8156996240        2.8967289317
  C         2.2115980619        2.2061986564        0.4858990077
       8
 i =       15, E =       -44.9166473064
  C         0.8838289846        2.6409730274        2.8719168049
  C         0.3658008274        0.3258604398       -0.2503509502
  C         1.0624147733        1.0569541042        0.9546872568
  C         0.2152346302        1.6221040873        2.2701120345
  C         3.1116412156        3.1460830476        0.6058470566
  C         1.6317025722        0.2225832593        2.2496852141
  C         2.6081601979        0.8405277029        2.9249013732
  C         2.2358295857        2.2622679885        0.5068837149
       8
 i =       16, E =       -45.0320500107
  C         0.8356622526        2.6339007264        2.8085122471
  C         0.3552714187        0.2615094785       -0.2409964545
  C         1.0380892921        1.0420360905        0.9783303397
  C         0.1477219766        1.5208227689        2.2428353604
  C         2.9440395141        3.0359933964        0.3558470566
  C         1.5199464783        0.1834391272        2.2213531356
  C         2.6201832096        0.7443094939        2.9087628784
  C         2.1066232770        2.1456301730        0.3136011543
       8
 i =       17, E =       -45.1065604657
  C         0.8093977184        2.5872493067        2.7353617226
  C         0.3976572736        0.2154702153       -0.2227591402
  C         0.9941096979        1.0201903436        1.0485964203
  C         0.0770339290        1.4748747184        2.2131069927
  C         2.8376380487        3.0188165419        0.1058470566
  C         1.4668101366        0.1567786932        2.1619408333
  C         2.5823308197        0.6240748365        2.9032384151
  C         1.9652953308        2.0201154663        0.2094855726
       8
 i =       18, E =       -45.0858104190
  C         0.7476244184        2.5191582171        2.6348981026
  C         0.4482956751        0.1067437371       -0.1412321953
  C         0.9821706939        1.0466608584        1.0138219622
  C         0.0050410414        1.2999039700        2.1865508194
  C         2.6924089344        3.0304479631       -0.1294658129
  C         1.2881913610        0.1375735126        2.0361913942
  C         2.4746797365        0.3740748365        2.9093390239
  C         1.8550592178        1.9596356164        0.0127329449
       8
 i =       19, E =       -45.1456220838
  C         0.7137427665        2.6348458296        2.7498811697
  C         0.3171206108        0.1829587654       -0.0288179505
  C         1.0457805798        1.0001351016        0.9665427071
  C         0.1962461132        1.2785818549        2.2268193148
  C         2.7976634522        2.9414478881       -0.0042299829
  C         1.3435095564        0.0615960063        1.9713621862
  C         2.3754434623        0.4796019822        2.7983888668
  C         1.8390593837        2.0230095970       -0.0191801594
       8
 i =       20, E =       -45.1871146737
  C         0.8679682973        2.5225209571        2.8128984362
  C         0.4175048330        0.1627816981       -0.1412748243
  C         1.0121119258        0.9975043616        0.9760503216
  C         0.1604716189        1.3930976673        2.2263189683
  C         2.8100960576        3.1426476828        0.1181735122
  C         1.3950633058        0.1744921471        2.1692978580
  C         2.5104857768        0.6797775055        2.8740907958
  C         1.9620725776        2.0477243677        0.1379354690
       8
 i =       21, E =       -45.2160753108
  C         0.9190082151        2.5700277659        2.7813653827
  C         0.4532361276        0.0913442652       -0.0768127672
  C         0.9916770988        1.0009417741        0.9647475330
  C         0.1859689296        1.3435793304        2.2873158550
  C         2.7847112994        3.1398283421        0.0930267887
  C         1.4264833342        0.2254322386        2.1153775412
  C         2.4719645693        0.6704756331        2.9370899982
  C         1.9031767625        2.0743614744        0.0777324903
       8
 i =       22, E =       -45.2280864655
  C         0.8949505098        2.5437963145        2.8248914148
  C         0.4353132520        0.0695305327        0.0156576573
  C         0.9945000116        1.0023975281        0.9392319702
  C         0.2358394349        1.3293044909        2.2599092159
  C         2.7242659434        3.1858661412        0.0918278121
  C         1.3742644887        0.2195366408        2.0841959064
  C         2.4559193443        0.6324317185        2.8840888985
  C         1.9556636530        2.0331046027        0.0056330251
       8
 i =       23, E =       -45.2352600993
  C         0.8995788804        2.5469535737        2.8077705474
  C         0.4467283661        0.0422304722        0.0270894780
  C         0.9933748200        0.9844004608        0.9439003076
  C         0.2424326419        1.3159387509        2.2523209166
  C         2.7245776747        3.2294806523        0.1335605601
  C         1.4133750312        0.2424529581        2.1228676266
  C         2.4613579632        0.6838480756        2.9232708599
  C         1.9918232243        2.0604063269        0.0118611685
       8
 i =       24, E =       -45.2385445786
  C         0.9641509070        2.5595655082        2.8237134090
  C         0.4619027165        0.0043675191        0.0225357166
  C         0.9465781482        0.9781060227        0.9682930255
  C         0.2611027614        1.3398118899        2.2908211980
  C         2.7300943117        3.2674490947        0.1733818321
  C         1.4309694200        0.2606889359        2.1411631503
  C         2.4734628000        0.7408658822        2.9502861586
  C         2.0504654112        2.0627996049        0.0126403785
       8
 i =       25, E =       -45.2412348431
  C         0.9409519473        2.5463994570        2.8172978458
  C         0.4533992125        0.0132854263        0.0180154287
  C         0.9452638732        0.9558723962        0.9844482491
  C         0.2604048036        1.3148701926        2.2722213984
  C         2.7351070363        3.2530312911        0.1609221161
  C         1.4240689320        0.2338691624        2.1369375496
  C         2.4622429341        0.7424460021        2.9466488279
  C         2.0472812767        2.0674584730       -0.0054728009
       8
 i =       26, E =       -45.2427474984
  C         0.9474122037        2.5468271559        2.8199288290
  C         0.4513971708        0.0116822294        0.0326662831
  C         0.9320864664        0.9459858608        0.9981336381
  C         0.2729840433        1.3125318381        2.2740890822
  C         2.7419458883        3.2424583040        0.1709623053
  C         1.4320135859        0.2423273370        2.1341836367
  C         2.4813020492        0.7397267810        2.9520811914
  C         2.0650293897        2.0719874737       -0.0226034948
       8
 i =       27, E =       -45.2438253804
  C         0.9685989485        2.5340958945        2.8237114435
  C         0.4571746239        0.0060851719        0.0339445103
  C         0.9100840193        0.9208022549        1.0182297733
  C         0.2773042108        1.3019652798        2.2763471385
  C         2.7470436339        3.2378771277        0.1683572483
  C         1.4353643376        0.2327944164        2.1341208690
  C         2.4875760767        0.7396787579        2.9539410426
  C         2.0861548742        2.0687437075       -0.0534639195
       8
 i =       28, E =       -45.2445430192
  C         0.9811158762        2.5314645624        2.8245227200
  C         0.4662046992        0.0041974120        0.0343740015
  C         0.8958613205        0.9055322921        1.0300863550
  C         0.2797018326        1.3015921263        2.2866718813
  C         2.7613663855        3.2344926700        0.1720996016
  C         1.4442969622        0.2302589962        2.1357467032
  C         2.4973264654        0.7328571240        2.9575570209
  C         2.1041033396        2.0695375461       -0.0573820409
       8
 i =       29, E =       -45.2452114561
  C         0.9924231094        2.5241083914        2.8290578450
  C         0.4850007371       -0.0013586872        0.0378676890
  C         0.8849636858        0.8775650079        1.0422673483
  C         0.2861268149        1.3007229970        2.2957702354
  C         2.7742145545        3.2373406196        0.1759928116
  C         1.4584821939        0.2242069406        2.1505533239
  C         2.5127255959        0.7277582328        2.9641766806
  C         2.1267568557        2.0706768285       -0.0560524612
       8
 i =       30, E =       -45.2453285279
  C         0.9914757549        2.5162964971        2.8292440338
  C         0.4915359054       -0.0058739684        0.0380178114
  C         0.8811026556        0.8706712535        1.0431976445
  C         0.2820994859        1.2946156340        2.2969574831
  C         2.7770375511        3.2371636222        0.1747144829
  C         1.4566415522        0.2156196989        2.1494000681
  C         2.5090693776        0.7241235320        2.9620904309
  C         2.1304065932        2.0700394345       -0.0535924024
       8
 i =       31, E =       -45.2453832518
  C         0.9921612862        2.5143910152        2.8327976005
  C         0.4935101095       -0.0102529679        0.0407094535
  C         0.8802637388        0.8648801098        1.0442001507
  C         0.2849005524        1.2912846694        2.2990810300
  C         2.7765180880        3.2370657332        0.1739636305
  C         1.4577041860        0.2139616161        2.1539917706
  C         2.5109445734        0.7261017773        2.9623650194
  C         2.1312750884        2.0700024740       -0.0497701707
       8
 i =       32, E =       -45.2454193794
  C         0.9910916906        2.5096885329        2.8334989719
  C         0.4929069807       -0.0163805909        0.0431411504
  C         0.8770819856        0.8598211614        1.0456339381
  C         0.2825026472        1.2863067834        2.2991430426
  C         2.7734532351        3.2331779476        0.1722166066
  C         1.4563291573        0.2098520139        2.1545628696
  C         2.5108042134        0.7250690903        2.9606411665
  C         2.1297417761        2.0664002690       -0.0486505247
       8
 i =       33, E =       -45.2454541925
  C         0.9886669308        2.5032477437        2.8335527058
  C         0.4897043314       -0.0253505791        0.0463175161
  C         0.8720417488        0.8525201418        1.0464648627
  C         0.2790924128        1.2772576914        2.3009119062
  C         2.7697383751        3.2261893333        0.1692468638
  C         1.4521208935        0.2046161841        2.1545096534
  C         2.5092199063        0.7205866293        2.9582032262
  C         2.1271732090        2.0596379926       -0.0492105867
       8
 i =       34, E =       -45.2454870586
  C         0.9839802596        2.4946542009        2.8313846022
  C         0.4845621542       -0.0367277625        0.0484862675
  C         0.8657050935        0.8429575276        1.0465071259
  C         0.2727853956        1.2676578568        2.3003320220
  C         2.7639283922        3.2159473509        0.1651747023
  C         1.4468959955        0.1969742512        2.1536051556
  C         2.5062938739        0.7126229043        2.9552280390
  C         2.1224072888        2.0493656332       -0.0522121031
       8
 i =       35, E =       -45.2455173035
  C         0.9775947111        2.4872607310        2.8281876883
  C         0.4779151445       -0.0470086609        0.0485924121
  C         0.8606550059        0.8348386259        1.0441113354
  C         0.2667466173        1.2599264341        2.2978409052
  C         2.7578500402        3.2055474901        0.1609601315
  C         1.4406411843        0.1900995823        2.1519786039
  C         2.5014746819        0.7034247977        2.9527301490
  C         2.1154644640        2.0390778476       -0.0558771343
       8
 i =       36, E =       -45.2455441996
  C         0.9737642060        2.4859845345        2.8260386741
  C         0.4738236140       -0.0490938869        0.0463099875
  C         0.8600017074        0.8338972089        1.0405495823
  C         0.2646720167        1.2600192428        2.2943056417
  C         2.7552071298        3.2024710056        0.1602154011
  C         1.4374982828        0.1888393675        2.1509002059
  C         2.4977265762        0.6999512754        2.9528143465
  C         2.1108356137        2.0361004531       -0.0573737254
       8
 i =       37, E =       -45.2455597283
  C         0.9709787807        2.4848448657        2.8244985314
  C         0.4714526063       -0.0497879698        0.0430488284
  C         0.8585481486        0.8329121383        1.0372627005
  C         0.2628347588        1.2599695200        2.2905650168
  C         2.7532280849        3.2011935143        0.1594098288
  C         1.4345983685        0.1875320420        2.1495315813
  C         2.4938711523        0.6981236719        2.9525375283
  C         2.1072173158        2.0352138938       -0.0581298038
       8
 i =       38, E =       -45.2455683678
  C         0.9689307816        2.4844436689        2.8231093091
  C         0.4692137618       -0.0497011551        0.0401279848
  C         0.8564561472        0.8325196619        1.0343414106
  C         0.2610915069        1.2599468555        2.2872607085
  C         2.7509407960        3.2007045631        0.1584639830
  C         1.4322814606        0.1869687061        2.1475981218
  C         2.4910557379        0.6975450258        2.9513539248
  C         2.1044480513        2.0348155227       -0.0588208655
       8
 i =       39, E =       -45.2455795412
  C         0.9659372793        2.4846872772        2.8200465165
  C         0.4651370200       -0.0483513823        0.0347698710
  C         0.8525476855        0.8329224724        1.0296217388
  C         0.2578764443        1.2599250531        2.2825113685
  C         2.7471217181        3.2004164476        0.1559626472
  C         1.4286764586        0.1867553486        2.1432536471
  C         2.4866903676        0.6973649191        2.9485785215
  C         2.0999091183        2.0349001383       -0.0606818652
       8
 i =       40, E =       -45.2455940566
  C         0.9614620117        2.4869087446        2.8143629126
  C         0.4584322375       -0.0437436864        0.0256648529
  C         0.8468681157        0.8358001506        1.0220143604
  C         0.2528410246        1.2615332686        2.2756721576
  C         2.7412479333        3.2018325499        0.1515115775
  C         1.4236092448        0.1878828752        2.1353330173
  C         2.4803507863        0.6986196058        2.9432218781
  C         2.0932865804        2.0366248278       -0.0645219086
       8
 i =       41, E =       -45.2456061544
  C         0.9579337586        2.4900036799        2.8083989088
  C         0.4529746500       -0.0377789290        0.0168629891
  C         0.8419955909        0.8392809517        1.0159266739
  C         0.2483786076        1.2640433939        2.2706360581
  C         2.7367280948        3.2046348085        0.1466010950
  C         1.4200864633        0.1896053229        2.1273753751
  C         2.4752507133        0.7010094882        2.9376119992
  C         2.0883563993        2.0397747001       -0.0691206105
       8
 i =       42, E =       -45.2456164088
  C         0.9581526334        2.4926491634        2.8061349647
  C         0.4529342872       -0.0337050249        0.0142939444
  C         0.8414224567        0.8415194322        1.0154282143
  C         0.2481458775        1.2666251396        2.2709109459
  C         2.7367666858        3.2082809026        0.1446103757
  C         1.4211988721        0.1917272297        2.1245760588
  C         2.4754616817        0.7041083933        2.9352344793
  C         2.0892534028        2.0432341542       -0.0714954726
       8
 i =       43, E =       -45.2456197827
  C         0.9570367658        2.4925445097        2.8043811839
  C         0.4521208299       -0.0339343440        0.0134628544
  C         0.8412780441        0.8409983405        1.0148775517
  C         0.2474967894        1.2666899740        2.2710319834
  C         2.7359053547        3.2082447730        0.1421595815
  C         1.4212514852        0.1916741922        2.1230436191
  C         2.4751550587        0.7042246857        2.9334838696
  C         2.0883988140        2.0432669549       -0.0736618108
       8
 i =       44, E =       -45.2456203355
  C         0.9577312577        2.4935904817        2.8046401448
  C         0.4528999087       -0.0327987820        0.0135023861
  C         0.8424008968        0.8422333904        1.0149634622
  C         0.2486323077        1.2680582848        2.2713020881
  C         2.7368595019        3.2097410382        0.1427899004
  C         1.4221494540        0.1928676926        2.1232852908
  C         2.4759234106        0.7055138077        2.9338159082
  C         2.0895230545        2.0447025154       -0.0735899650
       8
 i =       45, E =       -45.2456205460
  C         0.9573800014        2.4932039456        2.8043665399
  C         0.4526090994       -0.0331659045        0.0130936039
  C         0.8420716880        0.8418482920        1.0145546902
  C         0.2482709189        1.2677518564        2.2707276092
  C         2.7365515112        3.2093124641        0.1424171019
  C         1.4217489049        0.1924649363        2.1229365348
  C         2.4755138017        0.7051213089        2.9334968696
  C         2.0891275096        2.0443274994       -0.0738632196
       8
 i =       46, E =       -45.2456205451
  C         0.9573800014        2.4932039456        2.8043665399
  C         0.4526090994       -0.0331659045        0.0130936039
  C         0.8420716880        0.8418482920        1.0145546902
  C         0.2482709189        1.2677518564        2.2707276092
  C         2.7365515112        3.2093124641        0.1424171019
  C         1.4217489049        0.1924649363        2.1229365348
  C         2.4755138017        0.7051213089        2.9334968696
  C         2.0891275096        2.0443274994       -0.0738632196
       8
 i =        1, E =       -44.9743286852
  C         0.8770225853        2.7040756147        2.7040760706
  C        -0.0157192095       -0.0157288958       -0.0157211255
  C         0.8936064856        0.8936157105        0.8936089210
  C        -0.0284535387        1.7934118535        1.7934110045
  C         2.7040718138        2.7040793452        0.8770206111
  C         1.7934057626       -0.0284433442        1.7934086979
  C         2.7040828418        0.8770139164        2.7040785854
  C         1.7934133701        1.7934057549       -0.0284526522
       8
 i =        2, E =       -44.9744812716
  C         0.8836199150        2.7068567996        2.7068569056
  C        -0.0200263599       -0.0200267956       -0.0200263291
  C         0.8911655491        0.8911654900        0.8911656391
  C        -0.0257017169        1.7967172093        1.7967167697
  C         2.7068560868        2.7068569587        0.8836195910
  C         1.7967169963       -0.0257006528        1.7967171577
  C         2.7068578693        0.8836200617        2.7068570164
  C         1.7967168390        1.7967163959       -0.0257017258
       8
 i =        3, E =       -44.9746200073
  C         0.8936293964        2.7123968163        2.7123963431
  C        -0.0206626253       -0.0206582408       -0.0206617077
  C         0.8907178467        0.8907131000        0.8907166772
  C        -0.0181958013        1.8027168712        1.8027170315
  C         2.7123980656        2.7123948362        0.8936302123
  C         1.8027199726       -0.0182002716        1.8027183617
  C         2.7123936878        0.8936340532        2.7123954104
  C         1.8027157217        1.8027195909       -0.0181963178
       8
 i =        4, E =       -44.9721150374
  C         0.9691528393        2.7597413545        2.7597386541
  C        -0.0115360817       -0.0115039353       -0.0115303582
  C         0.8997743070        0.8997436950        0.8997658265
  C         0.0425311235        1.8525229244        1.8525259450
  C         2.7597543557        2.7597288770        0.9691600413
  C         1.8525431945        0.0424956567        1.8525330050
  C         2.7597150867        0.9691816643        2.7597308683
  C         1.8525180572        1.8525449401        0.0425281230
       8
 i =        5, E =       -44.9748056675
  C         0.9177810112        2.7290232010        2.7290215100
  C        -0.0131580094       -0.0131471343       -0.0131559600
  C         0.8977675197        0.8977566387        0.8977646822
  C         0.0017950197        1.8199791089        1.8199800865
  C         2.7290272652        2.7290182527        0.9177833498
  C         1.8199865804        0.0017826434        1.8199826226
  C         2.7290135645        0.9177916761        2.7290193454
  C         1.8199766877        1.8199870109        0.0017939622
       8
 i =        6, E =       -44.9741358385
  C         0.8610512555        2.6957233191        2.6957261870
  C        -0.0172381421       -0.0172494978       -0.0172391554
  C         0.8921510997        0.8921635314        0.8921548797
  C        -0.0427063671        1.7850835577        1.7850784941
  C         2.6957162752        2.6957296365        0.8610476101
  C         1.7850722637       -0.0426906812        1.7850780135
  C         2.6957367174        0.8610391915        2.6957271098
  C         1.7850843377        1.7850701488       -0.0427060167
       8
 i =        7, E =       -44.9744123416
  C         0.8793286162        2.7051291306        2.7051296028
  C        -0.0172013972       -0.0172058371       -0.0172018411
  C         0.8930870991        0.8930912167        0.8930882744
  C        -0.0291600794        1.7949145557        1.7949121974
  C         2.7051260485        2.7051314104        0.8793270832