       8
 i =        1, E =       -44.9650955804
  C         0.8144719762        2.7600953871        2.7600986336
  C        -0.0305496256       -0.0305414577       -0.0305328568
  C         0.9000976077        0.9000945140        0.9000886697
  C        -0.0831348762        1.8040908974        1.8040816548
  C         2.7600802911        2.7600943914        0.8144745599
  C         1.8040820050       -0.0831311586        1.8040952936
  C         2.7601096362        0.8144675536        2.7600917188
  C         1.8040930330        1.8040794384       -0.0831475095
       8
 i =        2, E =       -44.9715590738
  C         0.8834483048        2.7652085148        2.7652078861
  C        -0.0998072600       -0.0998089662       -0.0998110944
  C         0.8571561777        0.8571566546        0.8571566009
  C        -0.0637312922        1.8138897535        1.8138979557
  C         2.7652106905        2.7652086487        0.8834471948
  C         1.8138937144       -0.0637330544        1.8138922766
  C         2.7652041700        0.8834478877        2.7652101489
  C         1.8138926539        1.8138961361       -0.0637290792
       8
 i =        3, E =       -44.9729589648
  C         0.8684405641        2.7570633827        2.7570643908
  C        -0.0778282285       -0.0778280077       -0.0778272080
  C         0.8717944741        0.8717943231        0.8717949529
  C        -0.0743744366        1.8122716174        1.8122717692
  C         2.7570628338        2.7570635005        0.8684405536
  C         1.8122712780       -0.0743753233        1.8122717904
  C         2.7570641389        0.8684403466        2.7570634590
  C         1.8122717686        1.8122712714       -0.0743743226
       8
 i =        4, E =       -44.9730057862
  C         0.8661152658        2.7573506821        2.7573509425
  C        -0.0785795504       -0.0785797885       -0.0785798684
  C         0.8691473964        0.8691473885        0.8691476618
  C        -0.0764548134        1.8122692188        1.8122701570
  C         2.7573509282        2.7573507668        0.8661154384
  C         1.8122697232       -0.0764549922        1.8122696939
  C         2.7573507526        0.8661151865        2.7573513880
  C         1.8122696234        1.8122701134       -0.0764543547
       8
 i =        5, E =       -44.9730195150
  C         0.8660278313        2.7565465950        2.7565467677
  C        -0.0791706774       -0.0791704840       -0.0791700866
  C         0.8668963854        0.8668963756        0.8668964716
  C        -0.0780245068        1.8117776180        1.8117772491
  C         2.7565462393        2.7565464271        0.8660278684
  C         1.8117773271       -0.0780245428        1.8117775232
  C         2.7565469760        0.8660278335        2.7565464194
  C         1.8117775455        1.8117770926       -0.0780246438
       8
 i =        6, E =       -44.9730219450
  C         0.8660797904        2.7561755076        2.7561753290
  C        -0.0789974309       -0.0789977160       -0.0789981863
  C         0.8661852722        0.8661852808        0.8661852575
  C        -0.0787470477        1.8113078933        1.8113084951
  C         2.7561759403        2.7561756564        0.8660797843
  C         1.8113082928       -0.0787469171        1.8113081800
  C         2.7561751513        0.8660798028        2.7561758935
  C         1.8113081404        1.8113086290       -0.0787467268
       8
 i =        7, E =       -44.9730219449
  C         0.8660797904        2.7561755076        2.7561753290
  C        -0.0789974309       -0.0789977160       -0.0789981863
  C         0.8661852722        0.8661852808        0.8661852575
  C        -0.0787470477        1.8113078933        1.8113084951
  C         2.7561759403        2.7561756564        0.8660797843
  C         1.8113082928       -0.0787469171        1.8113081800
  C         2.7561751513        0.8660798028        2.7561758935
  C         1.8113081404        1.8113086290       -0.0787467268
