#     Step Nr.          Time[fs]        Kin.[a.u.]          Temp[K]            Pot.[a.u.]        Cons Qty[a.u.]        UsedTime[s]
         0            0.000000         0.005700268       300.000000000       -34.447892042       -34.442191774         0.000000000
         1            0.500000         0.005667590       298.280219661       -34.447974892       -34.442189883       335.356675302
         2            1.000000         0.005386819       283.503492445       -34.447898091       -34.442183965        70.802167803
         3            1.500000         0.004835368       254.481098401       -34.447762903       -34.442179533        78.531725445
         4            2.000000         0.004560829       240.032373129       -34.447648715       -34.442178525        64.933309568
         5            2.500000         0.004570074       240.518929688       -34.447580734       -34.442181252        48.572848387
         6            3.000000         0.004870031       256.305386639       -34.447520720       -34.442184724        79.117092352
         7            3.500000         0.004194710       220.763842538       -34.447417961       -34.442186962        72.734688320
         8            4.000000         0.003780562       198.967599936       -34.447260911       -34.442186881        48.225224685
         9            4.500000         0.003706128       195.050196902       -34.447040584       -34.442185386        55.812060847
        10            5.000000         0.003582162       188.525970883       -34.446802960       -34.442183740        62.559128751
        11            5.500000         0.003470219       182.634544803       -34.446567843       -34.442181262        87.204660303
        12            6.000000         0.003151634       165.867708961       -34.446367776       -34.442178467        59.432094950
        13            6.500000         0.003491924       183.776832814       -34.446253222       -34.442176716        50.193945645
        14            7.000000         0.003872534       203.807993775       -34.446234145       -34.442175979        66.227667345
        15            7.500000         0.003912174       205.894203931       -34.446312781       -34.442177721        58.471097352
        16            8.000000         0.004306877       226.667084971       -34.446462004       -34.442182087        81.095934505
        17            8.500000         0.004244786       223.399289612       -34.446613201       -34.442185431        56.755462742
        18            9.000000         0.004258168       224.103608376       -34.446724569       -34.442186257        99.537184696
        19            9.500000         0.004291133       225.838486079       -34.446800843       -34.442185110        57.316575657
        20           10.000000         0.004413220       232.263822629       -34.446856556       -34.442182873        85.707343872
        21           10.500000         0.004546585       239.282686831       -34.446920114       -34.442182096        61.479589742
        22           11.000000         0.004905263       258.159626666       -34.446997673       -34.442184218        73.562708650
        23           11.500000         0.004581445       241.117353579       -34.447063278       -34.442186570        65.926975278
        24           12.000000         0.004782398       251.693349193       -34.447087073       -34.442187854        78.429938914
        25           12.500000         0.004766588       250.861265644       -34.447053494       -34.442187935       114.709674052
        26           13.000000         0.004779099       251.519706626       -34.446961376       -34.442186048        60.561375629
        27           13.500000         0.004394182       231.261887058       -34.446854210       -34.442184761        66.457768071
        28           14.000000         0.004333645       228.075884197       -34.446749884       -34.442184048        73.297449092
        29           14.500000         0.003710546       195.282730984       -34.446666272       -34.442184316        64.291814070
        30           15.000000         0.003536344       186.114618377       -34.446620705       -34.442184879        66.511817253
        31           15.500000         0.003650855       192.141263871       -34.446603469       -34.442186081        53.867822832
        32           16.000000         0.003681151       193.735674815       -34.446600348       -34.442187532        55.833317224
        33           16.500000         0.003938151       207.261400292       -34.446579522       -34.442189093        75.484275545
        34           17.000000         0.004292177       225.893439376       -34.446488145       -34.442189220        68.416460491
        35           17.500000         0.004161231       219.001893582       -34.446323705       -34.442185171        50.072687511
        36           18.000000         0.004336871       228.245651984       -34.446126116       -34.442177724        64.750473131
        37           18.500000         0.004041556       212.703498230       -34.446018277       -34.442172071        59.979827274
        38           19.000000         0.004466827       235.085100632       -34.446091325       -34.442172485        53.615402298
        39           19.500000         0.004128930       217.301911581       -34.446339386       -34.442180069        56.093381067
        40           20.000000         0.004509331       237.322057343       -34.446643012       -34.442190130        81.839696826
        41           20.500000         0.004871835       256.400323519       -34.446871288       -34.442197879        68.721110276
        42           21.000000         0.004992700       262.761323027       -34.446896017       -34.442198468        90.078703340
        43           21.500000         0.004960862       261.085749233       -34.446690948       -34.442192552       103.178744859
        44           22.000000         0.004639081       244.150693700       -34.446328329       -34.442183427        74.539633385
        45           22.500000         0.004469164       235.208099510       -34.445946442       -34.442175661        75.218678513
        46           23.000000         0.004233056       222.781956830       -34.445675830       -34.442171456        95.286568231
        47           23.500000         0.004249262       223.634892118       -34.445579858       -34.442172151        63.294290443
        48           24.000000         0.004187161       220.366525598       -34.445645201       -34.442177537        51.186738031
        49           24.500000         0.004524545       238.122773238       -34.445789830       -34.442185264        74.818679228
        50           25.000000         0.004550764       239.502635274       -34.445891885       -34.442193117       121.153897429
        51           25.500000         0.004172253       219.581955879       -34.445825628       -34.442197498        70.380751202
        52           26.000000         0.004071997       214.305594474       -34.445537444       -34.442194649        73.525687244
        53           26.500000         0.003956192       208.210862899       -34.445065224       -34.442184371        46.271591472
        54           27.000000         0.003204241       168.636367387       -34.444604698       -34.442171370        99.496811401
        55           27.500000         0.002705854       142.406685723       -34.444337193       -34.442163200        60.211193900
        56           28.000000         0.002998913       157.830090274       -34.444406276       -34.442165533        64.222121159
        57           28.500000         0.003077979       161.991300933       -34.444775841       -34.442177699        87.584767269
        58           29.000000         0.003574037       188.098384974       -34.445263117       -34.442191949        54.741910304
        59           29.500000         0.004000348       210.534729983       -34.445644992       -34.442201003        49.912007251
        60           30.000000         0.003504666       184.447446642       -34.445789328       -34.442201364        79.323930297
        61           30.500000         0.003401748       179.030976814       -34.445730797       -34.442196203        65.134142207
        62           31.000000         0.003242495       170.649614201       -34.445565618       -34.442188438        51.279318687
        63           31.500000         0.003488216       183.581707572       -34.445387217       -34.442181461        68.264704599
        64           32.000000         0.003918730       206.239259688       -34.445291593       -34.442177066        88.289273179
        65           32.500000         0.004210111       221.574361226       -34.445341683       -34.442177401        85.369182214
        66           33.000000         0.003971190       209.000162853       -34.445533142       -34.442181946        74.991557088
        67           33.500000         0.004419753       232.607670153       -34.445786241       -34.442190281        65.184156727
        68           34.000000         0.004498524       236.753287933       -34.445975862       -34.442199111        70.195937950
        69           34.500000         0.004970381       261.586741567       -34.445967580       -34.442205168        93.432390395
        70           35.000000         0.004653742       244.922264345       -34.445639407       -34.442202298        86.779316750
        71           35.500000         0.004344028       228.622304699       -34.445027137       -34.442188949        61.215658783
        72           36.000000         0.004231511       222.700638515       -34.444310608       -34.442169527        84.269573784
        73           36.500000         0.003332249       175.373275755       -34.443798339       -34.442156115        66.436049883
        74           37.000000         0.003019570       158.917288325       -34.443718533       -34.442157449        89.565214775
        75           37.500000         0.003500288       184.217048422       -34.444040279       -34.442172512        55.587280465
        76           38.000000         0.003796671       199.815389559       -34.444558015       -34.442191497        54.783441022
        77           38.500000         0.004243580       223.335823856       -34.444950509       -34.442202988        53.199528175
        78           39.000000         0.004445696       233.972999068       -34.445058126       -34.442202626        64.306952124
        79           39.500000         0.004426742       232.975473181       -34.444864558       -34.442192828        87.611176888
        80           40.000000         0.003832404       201.695986539       -34.444501208       -34.442178595       102.429438088
        81           40.500000         0.003715790       195.558730869       -34.444197270       -34.442167342        53.165869665
        82           41.000000         0.003962331       208.533963820       -34.444118287       -34.442161993        52.353078771
        83           41.500000         0.004334090       228.099266019       -34.444348169       -34.442165204        64.872591730
        84           42.000000         0.005033613       264.914576770       -34.444835146       -34.442176204        69.233083112
        85           42.500000         0.005824540       306.540347901       -34.445410055       -34.442192591        48.902573094
        86           43.000000         0.006431547       338.486581098       -34.445799102       -34.442207276        68.070347585
        87           43.500000         0.006459002       339.931539365       -34.445771065       -34.442212804       110.806051736
        88           44.000000         0.005794429       304.955645471       -34.445227867       -34.442203689        43.372271414
        89           44.500000         0.004992038       262.726520868       -34.444361525       -34.442183561        43.241367436
        90           45.000000         0.004464235       234.948731036       -34.443437122       -34.442161346        61.150003415
        91           45.500000         0.003442916       181.197576173       -34.442812323       -34.442150733        64.580827193
        92           46.000000         0.003171692       166.923319428       -34.442680368       -34.442156991        64.936218127
        93           46.500000         0.003574462       188.120720510       -34.442933034       -34.442175122        76.245430304
        94           47.000000         0.003732412       196.433492533       -34.443289462       -34.442191812        54.631576510
        95           47.500000         0.003827172       201.420656042       -34.443514251       -34.442199746        85.384438277
        96           48.000000         0.003819543       201.019165442       -34.443489352       -34.442196741        78.267021118
        97           48.500000         0.003464091       182.312001532       -34.443267511       -34.442186842        94.186726052
        98           49.000000         0.003121184       164.265148925       -34.443006053       -34.442174910       108.641605335
        99           49.500000         0.003084447       162.331718313       -34.442881595       -34.442166000        60.687342657
       100           50.000000         0.003579072       188.363354745       -34.443039090       -34.442162987        78.354913064
       101           50.500000         0.004531504       238.489008567       -34.443544969       -34.442168051        58.734330901
       102           51.000000         0.006276625       330.333164326       -34.444318431       -34.442180117        64.830393623
       103           51.500000         0.007103992       373.876764972       -34.445151248       -34.442197138        79.763510153
       104           52.000000         0.007751904       407.975800919       -34.445724251       -34.442210826        55.510716167
       105           52.500000         0.008224540       432.850223351       -34.445827151       -34.442214947       104.991734798
       106           53.000000         0.007650240       402.625329136       -34.445389141       -34.442203666        89.212490988
       107           53.500000         0.006913276       363.839561239       -34.444580291       -34.442181333        73.511981200
       108           54.000000         0.005698048       299.883189322       -34.443809021       -34.442161098        88.910393643
       109           54.500000         0.005168879       272.033498780       -34.443374787       -34.442155619        59.923898258
       110           55.000000         0.005259146       276.784172047       -34.443333633       -34.442166835        54.653615965
       111           55.500000         0.005186921       272.983019589       -34.443535523       -34.442184875        54.795056638
       112           56.000000         0.005287198       278.260489808       -34.443721282       -34.442199966        66.923510940
       113           56.500000         0.005093374       268.059717149       -34.443656340       -34.442202941        91.772045333
       114           57.000000         0.004369875       229.982640308       -34.443315371       -34.442195417        65.089489394
       115           57.500000         0.003520944       185.304164964       -34.442836664       -34.442183445        59.457991194
       116           58.000000         0.002897682       152.502426495       -34.442472500       -34.442173153        95.905771471
       117           58.500000         0.002687437       141.437425708       -34.442353315       -34.442167976        50.559561453
       118           59.000000         0.002562034       134.837568292       -34.442560485       -34.442170870        80.995026246
       119           59.500000         0.002888309       152.009139005       -34.443057351       -34.442180369        65.028569477
       120           60.000000         0.004015427       211.328336163       -34.443710589       -34.442194626        80.286862321
       121           60.500000         0.004559222       239.947784669       -34.444281347       -34.442208643        59.143144148
