       6
 i =        0, time =        0.000, E =       -34.4478920416
  H         5.6821684572        7.4609162981        8.0689954170
  H         7.0445292989        7.4987157681        7.3404634529
  O         6.0870348932        7.5014263346        7.1990799757
  H         9.3178315428        8.2718318127        6.9796365913
  H         9.2997220345        6.7281681873        6.9310045830
  O         9.0174607918        7.4879489376        7.4460378111
       6
 i =        1, time =        0.500, E =       -34.4479748922
  H         5.6937869083        7.4559080485        8.0702130291
  H         7.0479673229        7.4976025751        7.3377896728
  O         6.0845578543        7.5017468712        7.1990519281
  H         9.3314376492        8.2632011555        6.9814300506
  H         9.3124276345        6.7242288088        6.9304053567
  O         9.0173323259        7.4888049005        7.4460946087
       6
 i =        2, time =        1.000, E =       -34.4478980912
  H         5.7048820777        7.4508690522        8.0728754023
  H         7.0519244316        7.4964937145        7.3355296950
  O         6.0821155044        7.5020658456        7.1989453324
  H         9.3456237187        8.2559162286        6.9821866830
  H         9.3252305955        6.7203000416        6.9295300195
  O         9.0171311631        7.4895759565        7.4462183517
       6
 i =        3, time =        1.500, E =       -34.4477629031
  H         5.7148532491        7.4459476307        8.0771153569
  H         7.0556511288        7.4954451813        7.3335176705
  O         6.0798426864        7.5023801706        7.1986994663
  H         9.3599816174        8.2504972324        6.9818671315
  H         9.3373639372        6.7171395874        6.9289943436
  O         9.0168756378        7.4901766217        7.4463883816
       6
 i =        4, time =        2.000, E =       -34.4476487154
  H         5.7240332895        7.4409335068        8.0831842354
  H         7.0587490504        7.4944289417        7.3315223070
  O         6.0776922917        7.5026944790        7.1983711691
  H         9.3750093334        8.2467468747        6.9805489907
  H         9.3489863662        6.7151254507        6.9292187009
  O         9.0165860658        7.4906002296        7.4465592309
       6
 i =        5, time =        2.500, E =       -34.4475807341
  H         5.7322145074        7.4359600280        8.0906294782
  H         7.0606978369        7.4934916478        7.3294029552
  O         6.0757370304        7.5030083141        7.1979395990
  H         9.3901822693        8.2445270308        6.9785473419
  H         9.3595650285        6.7146392780        6.9305625907
  O         9.0162860142        7.4908273470        7.4467059660
       6
 i =        6, time =        3.000, E =       -34.4475207201
  H         5.7400546384        7.4307340118        8.0995178125
  H         7.0613073140        7.4925877902        7.3269218978
  O         6.0738720773        7.5033298403        7.1974660090
  H         9.4061836088        8.2433062214        6.9760712950
  H         9.3695706060        6.7158272260        6.9333237599
  O         9.0159969083        7.4908881198        7.4467848188
       6
 i =        7, time =        3.500, E =       -34.4474179613
  H         5.7473614815        7.4255308083        8.1087791549
  H         7.0603583563        7.4917797687        7.3240481786
  O         6.0721712184        7.5036510611        7.1969685659
  H         9.4219753050        8.2426300316        6.9736915437
  H         9.3784444394        6.7186351888        6.9375198487
  O         9.0157490436        7.4908093076        7.4467730215
       6
 i =        8, time =        4.000, E =       -34.4472609114
  H         5.7541023781        7.4205853601        8.1174251333
  H         7.0579315909        7.4911036603        7.3208419092
  O         6.0706853857        7.5039466129        7.1965589020
  H         9.4366187013        8.2419842523        6.9719070912
  H         9.3858801565        6.7227150503        6.9429189582
  O         9.0155887060        7.4906457504        7.4466325356
       6
 i =        9, time =        4.500, E =       -34.4470405840
  H         5.7609847398        7.4155579598        8.1254750877
  H         7.0539812921        7.4905199717        7.3169788258
  O         6.0692609808        7.5042397844        7.1962352172
  H         9.4509326386        8.2408524576        6.9709624505
  H         9.3925444944        6.7280152706        6.9497999515
  O         9.0155123094        7.4904414779        7.4463239912
       6
 i =       10, time =        5.000, E =       -34.4468029603
  H         5.7675200521        7.4109416788        8.1316279148
  H         7.0491720991        7.4900878323        7.3127651640
  O         6.0680060352        7.5045073875        7.1960318543
  H         9.4633871412        8.2389707246        6.9713278763
  H         9.3980302309        6.7335269516        6.9573665896
  O         9.0155438573        7.4902575428        7.4459187572
       6
 i =       11, time =        5.500, E =       -34.4465678434
  H         5.7743494349        7.4063801993        8.1360662598
  H         7.0435085621        7.4897756584        7.3078356052
  O         6.0667659136        7.5047629063        7.1959897165
  H         9.4748133496        8.2359881767        6.9731818210
  H         9.4030223174        6.7390990802        6.9658995308
  O         9.0156813284        7.4901439865        7.4453410166
       6
 i =       12, time =        6.000, E =       -34.4463677761
  H         5.7814600746        7.4019226803        8.1384971297
  H         7.0375221934        7.4895896808        7.3021962680
  O         6.0655214793        7.5049992182        7.1961347377
  H         9.4849941657        8.2318303267        6.9766884769
  H         9.4077629394        6.7439939488        6.9750382716
  O         9.0159298804        7.4901479365        7.4446110509
       6
 i =       13, time =        6.500, E =       -34.4462532225
  H         5.7884597734        7.3977786873        8.1387318138
  H         7.0320386629        7.4895453831        7.2960790089
  O         6.0642970057        7.5052158465        7.1964226333
  H         9.4934551048        8.2267750366        6.9817636840
  H         9.4123307016        6.7472893992        6.9840760476
  O         9.0162613425        7.4902965757        7.4438174190
       6
 i =       14, time =        7.000, E =       -34.4462341449
  H         5.7962320510        7.3933600882        8.1369238785
  H         7.0268572425        7.4896482899        7.2885949369
  O         6.0628711495        7.5054377169        7.1969239114
  H         9.5013688492        8.2203469094        6.9890355302
  H         9.4176128177        6.7487671668        6.9939479315
  O         9.0166962593        7.4906566074        7.4428219664
       6
 i =       15, time =        7.500, E =       -34.4463127813
  H         5.8035805200        7.3892178524        8.1336458446
  H         7.0232207768        7.4898887284        7.2807179366
  O         6.0614214428        7.5056316402        7.1975585673
  H         9.5078390693        8.2138039860        6.9973765781
  H         9.4231141259        6.7476939946        7.0031381983
  O         9.0171669509        7.4911828562        7.4417836296
       6
 i =       16, time =        8.000, E =       -34.4464620040
  H         5.8107001314        7.3850573097        8.1292400805
  H         7.0212696143        7.4902893338        7.2719739257
  O         6.0598582735        7.5058234825        7.1982847336
  H         9.5135590759        8.2073116706        7.0070045894
  H         9.4292197757        6.7438195983        7.0121621810
  O         9.0176726582        7.4918716276        7.4407036969
       6
 i =       17, time =        8.500, E =       -34.4466132010
  H         5.8170650113        7.3809820478        8.1246703132
  H         7.0212295203        7.4908342514        7.2627783563
  O         6.0582560813        7.5059986374        7.1990634201
  H         9.5186424073        8.2018039710        7.0170344739
  H         9.4355655526        6.7374600046        7.0206477377
  O         9.0181711206        7.4926536990        7.4396106128
