#     Step Nr.          Time[fs]        Kin.[a.u.]          Temp[K]            Pot.[a.u.]        Cons Qty[a.u.]        UsedTime[s]
         0            0.000000         0.005700268       300.000000000       -34.447892042       -34.442191774         0.000000000
         1            0.500000         0.005667590       298.280219661       -34.447974892       -34.442189883       335.356675302
         2            1.000000         0.005386819       283.503492445       -34.447898091       -34.442183965        70.802167803
         3            1.500000         0.004835368       254.481098401       -34.447762903       -34.442179533        78.531725445
         4            2.000000         0.004560829       240.032373129       -34.447648715       -34.442178525        64.933309568
         5            2.500000         0.004570074       240.518929688       -34.447580734       -34.442181252        48.572848387
         6            3.000000         0.004870031       256.305386639       -34.447520720       -34.442184724        79.117092352
         7            3.500000         0.004194710       220.763842538       -34.447417961       -34.442186962        72.734688320
         8            4.000000         0.003780562       198.967599936       -34.447260911       -34.442186881        48.225224685
         9            4.500000         0.003706128       195.050196902       -34.447040584       -34.442185386        55.812060847
        10            5.000000         0.003582162       188.525970883       -34.446802960       -34.442183740        62.559128751
        11            5.500000         0.003470219       182.634544803       -34.446567843       -34.442181262        87.204660303
        12            6.000000         0.003151634       165.867708961       -34.446367776       -34.442178467        59.432094950
        13            6.500000         0.003491924       183.776832814       -34.446253222       -34.442176716        50.193945645
        14            7.000000         0.003872534       203.807993775       -34.446234145       -34.442175979        66.227667345
        15            7.500000         0.003912174       205.894203931       -34.446312781       -34.442177721        58.471097352
        16            8.000000         0.004306877       226.667084971       -34.446462004       -34.442182087        81.095934505
        17            8.500000         0.004244786       223.399289612       -34.446613201       -34.442185431        56.755462742
        18            9.000000         0.004258168       224.103608376       -34.446724569       -34.442186257        99.537184696
        19            9.500000         0.004291133       225.838486079       -34.446800843       -34.442185110        57.316575657
        20           10.000000         0.004413220       232.263822629       -34.446856556       -34.442182873        85.707343872
        21           10.500000         0.004546585       239.282686831       -34.446920114       -34.442182096        61.479589742
        22           11.000000         0.004905263       258.159626666       -34.446997673       -34.442184218        73.562708650
        23           11.500000         0.004581445       241.117353579       -34.447063278       -34.442186570        65.926975278
        24           12.000000         0.004782398       251.693349193       -34.447087073       -34.442187854        78.429938914
        25           12.500000         0.004766588       250.861265644       -34.447053494       -34.442187935       114.709674052
        26           13.000000         0.004779099       251.519706626       -34.446961376       -34.442186048        60.561375629
        27           13.500000         0.004394182       231.261887058       -34.446854210       -34.442184761        66.457768071
        28           14.000000         0.004333645       228.075884197       -34.446749884       -34.442184048        73.297449092
        29           14.500000         0.003710546       195.282730984       -34.446666272       -34.442184316        64.291814070
        30           15.000000         0.003536344       186.114618377       -34.446620705       -34.442184879        66.511817253
        31           15.500000         0.003650855       192.141263871       -34.446603469       -34.442186081        53.867822832
        32           16.000000         0.003681151       193.735674815       -34.446600348       -34.442187532        55.833317224
