#     Step Nr.          Time[fs]        Kin.[a.u.]          Temp[K]            Pot.[a.u.]        Cons Qty[a.u.]        UsedTime[s]
         0            0.000000         0.005700268       300.000000000       -34.447892042       -34.442191774         0.000000000
         1            0.500000         0.005667590       298.280219661       -34.447974892       -34.442189883       335.356675302
         2            1.000000         0.005386819       283.503492445       -34.447898091       -34.442183965        70.802167803
         3            1.500000         0.004835368       254.481098401       -34.447762903       -34.442179533        78.531725445
         4            2.000000         0.004560829       240.032373129       -34.447648715       -34.442178525        64.933309568
         5            2.500000         0.004570074       240.518929688       -34.447580734       -34.442181252        48.572848387
         6            3.000000         0.004870031       256.305386639       -34.447520720       -34.442184724        79.117092352
         7            3.500000         0.004194710       220.763842538       -34.447417961       -34.442186962        72.734688320
         8            4.000000         0.003780562       198.967599936       -34.447260911       -34.442186881        48.225224685
         9            4.500000         0.003706128       195.050196902       -34.447040584       -34.442185386        55.812060847
        10            5.000000         0.003582162       188.525970883       -34.446802960       -34.442183740        62.559128751
        11            5.500000         0.003470219       182.634544803       -34.446567843       -34.442181262        87.204660303
        12            6.000000         0.003151634       165.867708961       -34.446367776       -34.442178467        59.432094950
        13            6.500000         0.003491924       183.776832814       -34.446253222       -34.442176716        50.193945645
        14            7.000000         0.003872534       203.807993775       -34.446234145       -34.442175979        66.227667345
        15            7.500000         0.003912174       205.894203931       -34.446312781       -34.442177721        58.471097352
        16            8.000000         0.004306877       226.667084971       -34.446462004       -34.442182087        81.095934505
        17            8.500000         0.004244786       223.399289612       -34.446613201       -34.442185431        56.755462742
