 DBCSR| Multiplication driver                                               BLAS
 DBCSR| Multrec recursion limit                                              512
 DBCSR| Multiplication stack size                                           1000
 DBCSR| Maximum elements for images                                    UNLIMITED
 DBCSR| Multiplicative factor virtual images                                   1
 DBCSR| Multiplication size stacks                                             3


  **** **** ******  **  PROGRAM STARTED AT               2020-04-28 22:56:01.024
 ***** ** ***  *** **   PROGRAM STARTED ON                                 sheep
 **    ****   ******    PROGRAM STARTED BY                                 sim03
 ***** **    ** ** **   PROGRAM PROCESS ID                               1445194
  **** **  *******  **  PROGRAM STARTED IN /auto.eland/home/sim03/Documents/SimP
                                           hys/Summer/1/solutions/cutoff_100Ry

 CP2K| version string:                                          CP2K version 5.1
 CP2K| source code revision number:                                    svn:18091
 CP2K| cp2kflags: fftw3 max_contr=4                                             
 CP2K| is freely available from                            https://www.cp2k.org/
 CP2K| Program compiled at                         Thu May  9 16:52:28 CEST 2019
 CP2K| Program compiled on                                                  cip0
 CP2K| Program compiled for                                                 icp2
 CP2K| Data directory path          /auto.eland/group/allatom/cp2k/cp2k-5.1/data
 CP2K| Input file name                                        diamond_cutoff.inp

 GLOBAL| Force Environment number                                              1
 GLOBAL| Basis set file name                                        BASIS_MOLOPT
 GLOBAL| Potential file name                                      GTH_POTENTIALS
 GLOBAL| MM Potential file name                                     MM_POTENTIAL
 GLOBAL| Coordinate file name                                   diamond_fd3m.xyz
 GLOBAL| Method name                                                        CP2K
 GLOBAL| Project name                                             diamond_cutoff
 GLOBAL| Preferred FFT library                                             FFTW3
 GLOBAL| Preferred diagonalization lib.                                       SL
 GLOBAL| Run type                                                         ENERGY
 GLOBAL| All-to-all communication in single precision                          F
 GLOBAL| FFTs using library dependent lengths                                  F
 GLOBAL| Global print level                                               MEDIUM
 GLOBAL| Total number of message passing processes                             1
 GLOBAL| Number of threads for this process                                    1
 GLOBAL| This output is from process                                           0
 GLOBAL| CPU model name :  Intel(R) Core(TM) i7-3930K CPU @ 3.20GHz

 MEMORY| system memory details [Kb]
 MEMORY|                        rank 0           min           max       average
 MEMORY| MemTotal              8112108       8112108       8112108       8112108
 MEMORY| MemFree               5804716       5804716       5804716       5804716
 MEMORY| Buffers                152776        152776        152776        152776
 MEMORY| Cached                1345964       1345964       1345964       1345964
 MEMORY| Slab                   274176        274176        274176        274176
 MEMORY| SReclaimable           193724        193724        193724        193724
 MEMORY| MemLikelyFree         7497180       7497180       7497180       7497180


 *** Fundamental physical constants (SI units) ***

 *** Literature: B. J. Mohr and B. N. Taylor,
 ***             CODATA recommended values of the fundamental physical
 ***             constants: 2006, Web Version 5.1
 ***             http://physics.nist.gov/constants

 Speed of light in vacuum [m/s]                             2.99792458000000E+08
 Magnetic constant or permeability of vacuum [N/A**2]       1.25663706143592E-06
 Electric constant or permittivity of vacuum [F/m]          8.85418781762039E-12
 Planck constant (h) [J*s]                                  6.62606896000000E-34
 Planck constant (h-bar) [J*s]                              1.05457162825177E-34
 Elementary charge [C]                                      1.60217648700000E-19
 Electron mass [kg]                                         9.10938215000000E-31
 Electron g factor [ ]                                     -2.00231930436220E+00
 Proton mass [kg]                                           1.67262163700000E-27
 Fine-structure constant                                    7.29735253760000E-03
 Rydberg constant [1/m]                                     1.09737315685270E+07
 Avogadro constant [1/mol]                                  6.02214179000000E+23
 Boltzmann constant [J/K]                                   1.38065040000000E-23
 Atomic mass unit [kg]                                      1.66053878200000E-27
 Bohr radius [m]                                            5.29177208590000E-11

 *** Conversion factors ***

 [u] -> [a.u.]                                              1.82288848426455E+03
 [Angstrom] -> [Bohr] = [a.u.]                              1.88972613288564E+00
 [a.u.] = [Bohr] -> [Angstrom]                              5.29177208590000E-01
 [a.u.] -> [s]                                              2.41888432650478E-17
 [a.u.] -> [fs]                                             2.41888432650478E-02
 [a.u.] -> [J]                                              4.35974393937059E-18
 [a.u.] -> [N]                                              8.23872205491840E-08
 [a.u.] -> [K]                                              3.15774647902944E+05
 [a.u.] -> [kJ/mol]                                         2.62549961709828E+03
 [a.u.] -> [kcal/mol]                                       6.27509468713739E+02
 [a.u.] -> [Pa]                                             2.94210107994716E+13
 [a.u.] -> [bar]                                            2.94210107994716E+08
 [a.u.] -> [atm]                                            2.90362800883016E+08
 [a.u.] -> [eV]                                             2.72113838565563E+01
 [a.u.] -> [Hz]                                             6.57968392072181E+15
 [a.u.] -> [1/cm] (wave numbers)                            2.19474631370540E+05
 [a.u./Bohr**2] -> [1/cm]                                   5.14048714338585E+03
 

 CELL_TOP| Volume [angstrom^3]:                                           45.641
 CELL_TOP| Vector a [angstrom     3.574     0.000     0.000    |a| =       3.574
 CELL_TOP| Vector b [angstrom     0.000     3.574     0.000    |b| =       3.574
 CELL_TOP| Vector c [angstrom     0.000     0.000     3.574    |c| =       3.574
 CELL_TOP| Angle (b,c), alpha [degree]:                                   90.000
 CELL_TOP| Angle (a,c), beta  [degree]:                                   90.000
 CELL_TOP| Angle (a,b), gamma [degree]:                                   90.000
 CELL_TOP| Numerically orthorhombic:                                         YES

 GENERATE|  Preliminary Number of Bonds generated:                             0
 GENERATE|  Achieved consistency in connectivity generation.

 CELL| Volume [angstrom^3]:                                               45.641
 CELL| Vector a [angstrom]:       3.574     0.000     0.000    |a| =       3.574
 CELL| Vector b [angstrom]:       0.000     3.574     0.000    |b| =       3.574
 CELL| Vector c [angstrom]:       0.000     0.000     3.574    |c| =       3.574
 CELL| Angle (b,c), alpha [degree]:                                       90.000
 CELL| Angle (a,c), beta  [degree]:                                       90.000
 CELL| Angle (a,b), gamma [degree]:                                       90.000
 CELL| Numerically orthorhombic:                                             YES

 CELL_REF| Volume [angstrom^3]:                                           45.641
 CELL_REF| Vector a [angstrom     3.574     0.000     0.000    |a| =       3.574
 CELL_REF| Vector b [angstrom     0.000     3.574     0.000    |b| =       3.574
 CELL_REF| Vector c [angstrom     0.000     0.000     3.574    |c| =       3.574
 CELL_REF| Angle (b,c), alpha [degree]:                                   90.000
 CELL_REF| Angle (a,c), beta  [degree]:                                   90.000
 CELL_REF| Angle (a,b), gamma [degree]:                                   90.000
 CELL_REF| Numerically orthorhombic:                                         YES

 *******************************************************************************
 *******************************************************************************
 **                                                                           **
 **     #####                         ##              ##                      **
 **    ##   ##            ##          ##              ##                      **
 **   ##     ##                       ##            ######                    **
 **   ##     ##  ##   ##  ##   #####  ##  ##   ####   ##    #####    #####    **
 **   ##     ##  ##   ##  ##  ##      ## ##   ##      ##   ##   ##  ##   ##   **
 **   ##  ## ##  ##   ##  ##  ##      ####     ###    ##   ######   ######    **
 **    ##  ###   ##   ##  ##  ##      ## ##      ##   ##   ##       ##        **
 **     #######   #####   ##   #####  ##  ##  ####    ##    #####   ##        **
 **           ##                                                    ##        **
 **                                                                           **
 **                                                ... make the atoms dance   **
 **                                                                           **
 **            Copyright (C) by CP2K developers group (2000 - 2017)           **
 **                                                                           **
 *******************************************************************************

 DFT| Spin restricted Kohn-Sham (RKS) calculation                            RKS
 DFT| Multiplicity                                                             1
 DFT| Number of spin states                                                    1
 DFT| Charge                                                                   0
 DFT| Self-interaction correction (SIC)                                       NO
 DFT| Cutoffs: density                                              1.000000E-10
 DFT|          gradient                                             1.000000E-10
 DFT|          tau                                                  1.000000E-10
 DFT|          cutoff_smoothing_range                               0.000000E+00
 DFT| XC density smoothing                                                  NONE
 DFT| XC derivatives                                                          PW
 FUNCTIONAL| ROUTINE=NEW
 FUNCTIONAL| PBE:
 FUNCTIONAL| J.P.Perdew, K.Burke, M.Ernzerhof, Phys. Rev. Letter, vol. 77, n 18,
 FUNCTIONAL|  pp. 3865-3868, (1996){spin unpolarized}                           

 QS| Method:                                                                 GPW
 QS| Density plane wave grid type                        NON-SPHERICAL FULLSPACE
 QS| Number of grid levels:                                                    4
 QS| Density cutoff [a.u.]:                                                 50.0
 QS| Multi grid cutoff [a.u.]: 1) grid level                                50.0
 QS|                           2) grid level                                16.7
 QS|                           3) grid level                                 5.6
 QS|                           4) grid level                                 1.9
 QS| Grid level progression factor:                                          3.0
 QS| Relative density cutoff [a.u.]:                                        30.0
 QS| Consistent realspace mapping and integration 
 QS| Interaction thresholds: eps_pgf_orb:                                1.0E-05
 QS|                         eps_filter_matrix:                          0.0E+00
 QS|                         eps_core_charge:                            1.0E-12
 QS|                         eps_rho_gspace:                             1.0E-10
 QS|                         eps_rho_rspace:                             1.0E-10
 QS|                         eps_gvg_rspace:                             1.0E-05
 QS|                         eps_ppl:                                    1.0E-02
 QS|                         eps_ppnl:                                   1.0E-07


 ATOMIC KIND INFORMATION

  1. Atomic kind: C                                     Number of atoms:       8

     Orbital Basis Set                                        DZVP-MOLOPT-SR-GTH

       Number of orbital shell sets:                                           1
       Number of orbital shells:                                               5
       Number of primitive Cartesian functions:                                5
       Number of Cartesian basis functions:                                   14
       Number of spherical basis functions:                                   13
       Norm type:                                                              2

       Normalised Cartesian orbitals:

                        Set   Shell   Orbital            Exponent    Coefficient

                          1       1    2s                5.605331       0.322515
                                                         2.113016       0.213043
                                                         0.769911      -0.209686
                                                         0.348157      -0.219794
                                                         0.128212      -0.022789

                          1       2    3s                5.605331       0.552234
                                                         2.113016       0.082072
                                                         0.769911       0.007843
                                                         0.348157       0.136893
                                                         0.128212       0.074283

                          1       3    3px               5.605331      -0.703879
                                                         2.113016      -0.642521
                                                         0.769911      -0.374851
                                                         0.348157      -0.139743
                                                         0.128212      -0.027849
                          1       3    3py               5.605331      -0.703879
                                                         2.113016      -0.642521
                                                         0.769911      -0.374851
                                                         0.348157      -0.139743
                                                         0.128212      -0.027849
                          1       3    3pz               5.605331      -0.703879
                                                         2.113016      -0.642521
                                                         0.769911      -0.374851
                                                         0.348157      -0.139743
                                                         0.128212      -0.027849

                          1       4    4px               5.605331      -0.480376
                                                         2.113016      -0.552894
                                                         0.769911      -0.316145
                                                         0.348157       0.210505
                                                         0.128212       0.076095
                          1       4    4py               5.605331      -0.480376
                                                         2.113016      -0.552894
                                                         0.769911      -0.316145
                                                         0.348157       0.210505
                                                         0.128212       0.076095
                          1       4    4pz               5.605331      -0.480376
                                                         2.113016      -0.552894
                                                         0.769911      -0.316145
                                                         0.348157       0.210505
                                                         0.128212       0.076095

                          1       5    4dx2              5.605331       0.640026
                                                         2.113016       0.274300
                                                         0.769911       0.446711
                                                         0.348157       0.028674
                                                         0.128212       0.029790
                          1       5    4dxy              5.605331       1.108557
                                                         2.113016       0.475102
                                                         0.769911       0.773726
                                                         0.348157       0.049666
                                                         0.128212       0.051599
                          1       5    4dxz              5.605331       1.108557
                                                         2.113016       0.475102
                                                         0.769911       0.773726
                                                         0.348157       0.049666
                                                         0.128212       0.051599
                          1       5    4dy2              5.605331       0.640026
                                                         2.113016       0.274300
                                                         0.769911       0.446711
                                                         0.348157       0.028674
                                                         0.128212       0.029790
                          1       5    4dyz              5.605331       1.108557
                                                         2.113016       0.475102
                                                         0.769911       0.773726
                                                         0.348157       0.049666
                                                         0.128212       0.051599
                          1       5    4dz2              5.605331       0.640026
                                                         2.113016       0.274300
                                                         0.769911       0.446711
                                                         0.348157       0.028674
                                                         0.128212       0.029790

     GTH Potential information for                                       GTH-PBE

       Description:                       Goedecker-Teter-Hutter pseudopotential
                                           Goedecker et al., PRB 54, 1703 (1996)
                                          Hartwigsen et al., PRB 58, 3641 (1998)
                                                      Krack, TCA 114, 145 (2005)

       Gaussian exponent of the core charge distribution:               4.364419
       Electronic configuration (s p d ...):                               2   2

       Parameters of the local part of the GTH pseudopotential:

                          rloc        C1          C2          C3          C4
                        0.338471   -8.803674    1.339211

       Parameters of the non-local part of the GTH pseudopotential:

                   l      r(l)      h(i,j,l)

                   0    0.302576    9.622487
                   1    0.291507


 MOLECULE KIND INFORMATION


 All atoms are their own molecule, skipping detailed information


 TOTAL NUMBERS AND MAXIMUM NUMBERS

  Total number of            - Atomic kinds:                                   1
                             - Atoms:                                          8
                             - Shell sets:                                     8
                             - Shells:                                        40
                             - Primitive Cartesian functions:                 40
                             - Cartesian basis functions:                    112
                             - Spherical basis functions:                    104

  Maximum angular momentum of- Orbital basis functions:                        2
                             - Local part of the GTH pseudopotential:          2
                             - Non-local part of the GTH pseudopotential:      0


 MODULE QUICKSTEP:  ATOMIC COORDINATES IN angstrom

  Atom  Kind  Element       X           Y           Z          Z(eff)       Mass

       1     1 C    6    0.893427    2.680282    2.680282      4.00      12.0107
       2     1 C    6    0.000000    0.000000    0.000000      4.00      12.0107
       3     1 C    6    0.893427    0.893427    0.893427      4.00      12.0107
       4     1 C    6    0.000000    1.786855    1.786855      4.00      12.0107
       5     1 C    6    2.680282    2.680282    0.893427      4.00      12.0107
       6     1 C    6    1.786855    0.000000    1.786855      4.00      12.0107
       7     1 C    6    2.680282    0.893427    2.680282      4.00      12.0107
       8     1 C    6    1.786855    1.786855    0.000000      4.00      12.0107




 SCF PARAMETERS         Density guess:                                    ATOMIC
                        --------------------------------------------------------
                        max_scf:                                               1
                        max_scf_history:                                       0
                        max_diis:                                              4
                        --------------------------------------------------------
                        eps_scf:                                        1.00E-06
                        eps_scf_history:                                0.00E+00
                        eps_diis:                                       1.00E-01
                        eps_eigval:                                     1.00E-05
                        --------------------------------------------------------
                        level_shift [a.u.]:                                 0.00
                        --------------------------------------------------------
                        Outer loop SCF in use 
                        No variables optimised in outer loop
                        eps_scf                                         1.00E-06
                        max_scf                                               50
                        No outer loop optimization
                        step_size                                       5.00E-01

 PW_GRID| Information for grid number                                          1
 PW_GRID| Cutoff [a.u.]                                                     50.0
 PW_GRID| spherical cutoff:                                                   NO
 PW_GRID|   Bounds   1            -12      11                Points:          24
 PW_GRID|   Bounds   2            -12      11                Points:          24
 PW_GRID|   Bounds   3            -12      11                Points:          24
 PW_GRID| Volume element (a.u.^3)  0.2228E-01     Volume (a.u.^3)       308.0025
 PW_GRID| Grid span                                                    FULLSPACE

 PW_GRID| Information for grid number                                          2
 PW_GRID| Cutoff [a.u.]                                                     16.7
 PW_GRID| spherical cutoff:                                                   NO
 PW_GRID|   Bounds   1             -7       7                Points:          15
 PW_GRID|   Bounds   2             -7       7                Points:          15
 PW_GRID|   Bounds   3             -7       7                Points:          15
 PW_GRID| Volume element (a.u.^3)  0.9126E-01     Volume (a.u.^3)       308.0025
 PW_GRID| Grid span                                                    FULLSPACE

 PW_GRID| Information for grid number                                          3
 PW_GRID| Cutoff [a.u.]                                                      5.6
 PW_GRID| spherical cutoff:                                                   NO
 PW_GRID|   Bounds   1             -4       3                Points:           8
 PW_GRID|   Bounds   2             -4       3                Points:           8
 PW_GRID|   Bounds   3             -4       3                Points:           8
 PW_GRID| Volume element (a.u.^3)  0.6016         Volume (a.u.^3)       308.0025
 PW_GRID| Grid span                                                    FULLSPACE

 PW_GRID| Information for grid number                                          4
 PW_GRID| Cutoff [a.u.]                                                      1.9
 PW_GRID| spherical cutoff:                                                   NO
 PW_GRID|   Bounds   1             -3       2                Points:           6
 PW_GRID|   Bounds   2             -3       2                Points:           6
 PW_GRID|   Bounds   3             -3       2                Points:           6
 PW_GRID| Volume element (a.u.^3)   1.426         Volume (a.u.^3)       308.0025
 PW_GRID| Grid span                                                    FULLSPACE

 POISSON| Solver                                                        PERIODIC
 POISSON| Periodicity                                                        XYZ

 RS_GRID| Information for grid number                                          1
 RS_GRID|   Bounds   1            -12      11                Points:          24
 RS_GRID|   Bounds   2            -12      11                Points:          24
 RS_GRID|   Bounds   3            -12      11                Points:          24

 RS_GRID| Information for grid number                                          2
 RS_GRID|   Bounds   1             -7       7                Points:          15
 RS_GRID|   Bounds   2             -7       7                Points:          15
 RS_GRID|   Bounds   3             -7       7                Points:          15

 RS_GRID| Information for grid number                                          3
 RS_GRID|   Bounds   1             -4       3                Points:           8
 RS_GRID|   Bounds   2             -4       3                Points:           8
 RS_GRID|   Bounds   3             -4       3                Points:           8

 RS_GRID| Information for grid number                                          4
 RS_GRID|   Bounds   1             -3       2                Points:           6
 RS_GRID|   Bounds   2             -3       2                Points:           6
 RS_GRID|   Bounds   3             -3       2                Points:           6

 DISTRIBUTION OF THE PARTICLES (ROWS)
              Process row      Number of particles         Number of matrix rows
                        0                        8                            -1
                      Sum                        8                            -1

 DISTRIBUTION OF THE PARTICLES (COLUMNS)
              Process col      Number of particles      Number of matrix columns
                        0                        8                            -1
                      Sum                        8                            -1

 DISTRIBUTION OF THE NEIGHBOR LISTS
              Total number of particle pairs:                               4264
              Total number of matrix elements:                            720616
              Average number of particle pairs:                             4264
              Maximum number of particle pairs:                             4264
              Average number of matrix element:                           720616
              Maximum number of matrix elements:                          720616


 DISTRIBUTION OF THE OVERLAP MATRIX
              Number  of non-zero blocks:                                     36
              Percentage non-zero blocks:                                 100.00
              Average number of blocks per CPU:                               36
              Maximum number of blocks per CPU:                               36
              Average number of matrix elements per CPU:                    6094
              Maximum number of matrix elements per CPU:                    6094

 Number of electrons:                                                         32
 Number of occupied orbitals:                                                 16
 Number of molecular orbitals:                                                16

 Number of orbital functions:                                                104
 Number of independent orbital functions:                                    104

 Extrapolation method: initial_guess

 Atomic guess: The first density matrix is obtained in terms of atomic orbitals
               and electronic configurations assigned to each atomic kind

 Guess for atomic kind: C

 Electronic structure
    Total number of core electrons                                          2.00
    Total number of valence electrons                                       4.00
    Total number of electrons                                               6.00
    Multiplicity                                                   not specified
    S   [  2.00] 2.00
    P      2.00


 *******************************************************************************
                  Iteration          Convergence                     Energy [au]
 *******************************************************************************
                          1        0.457038                      -5.151105664215
                          2        0.157450                      -5.235617431356
                          3        0.130137E-02                  -5.246564342251
                          4        0.531061E-03                  -5.246565033610
                          5        0.605965E-04                  -5.246565167704
                          6        0.323545E-04                  -5.246565168968
                          7        0.365472E-07                  -5.246565169473

 Energy components [Hartree]           Total Energy ::           -5.246565169473
                                        Band Energy ::           -1.058732656762
                                     Kinetic Energy ::            3.518928154187
                                   Potential Energy ::           -8.765493323660
                                      Virial (-V/T) ::            2.490955467002
                                        Core Energy ::           -8.429377161979
                                          XC Energy ::           -1.450183339326
                                     Coulomb Energy ::            4.632995331832
                       Total Pseudopotential Energy ::          -11.978048785149
                       Local Pseudopotential Energy ::          -12.816738149676
                    Nonlocal Pseudopotential Energy ::            0.838689364526
                                        Confinement ::            0.297434689834

 Orbital energies  State     L     Occupation   Energy[a.u.]          Energy[eV]

                       1     0          2.000      -0.410911          -11.181458

                       1     1          2.000      -0.118455           -3.223332


 Total Electron Density at R=0:                                         0.001337
 Re-scaling the density matrix to get the right number of electrons
                  # Electrons              Trace(P)               Scaling factor
                           32                31.067                        1.030


 SCF WAVEFUNCTION OPTIMIZATION

  ----------------------------------- OT ---------------------------------------
  Minimizer      : DIIS                : direct inversion
                                         in the iterative subspace
                                         using   7 DIIS vectors
                                         safer DIIS on
  Preconditioner : FULL_KINETIC        : inversion of T + eS
  Precond_solver : DEFAULT
  stepsize       :    0.15000000                  energy_gap     :    0.20000000
  eps_taylor     :   0.10000E-15                  max_taylor     :             4
  ----------------------------------- OT ---------------------------------------

  Step     Update method      Time    Convergence         Total energy    Change
  ------------------------------------------------------------------------------
     1 OT DIIS     0.15E+00    1.0     0.06427302       -40.8863930158 -4.09E+01

  Leaving inner SCF loop after reaching     1 steps.


  Electronic density on regular grids:        -31.9999855183        0.0000144817
  Core density on regular grids:               31.9999999972       -0.0000000028
  Total charge density on r-space grids:        0.0000144789
  Total charge density g-space grids:           0.0000144789

  Overlap energy of the core charge distribution:               0.00000008767680
  Self energy of the core charge distribution:               -106.68006341412169
  Core Hamiltonian energy:                                     38.23604361636909
  Hartree energy:                                              41.73171966657042
  Exchange-correlation energy:                                -14.17409297224839

  Total energy:                                               -40.88639301575377

  outer SCF iter =    1 RMS gradient =   0.64E-01 energy =        -40.8863930158

  ----------------------------------- OT ---------------------------------------
  Minimizer      : DIIS                : direct inversion
                                         in the iterative subspace
                                         using   7 DIIS vectors
                                         safer DIIS on
  Preconditioner : FULL_KINETIC        : inversion of T + eS
  Precond_solver : DEFAULT
  stepsize       :    0.15000000                  energy_gap     :    0.20000000
  eps_taylor     :   0.10000E-15                  max_taylor     :             4
  ----------------------------------- OT ---------------------------------------

  Step     Update method      Time    Convergence         Total energy    Change
  ------------------------------------------------------------------------------
     1 OT DIIS     0.15E+00    2.9     0.04750138       -41.7712893816 -8.85E-01

  Leaving inner SCF loop after reaching     1 steps.


  Electronic density on regular grids:        -31.9999838207        0.0000161793
  Core density on regular grids:               31.9999999972       -0.0000000028
  Total charge density on r-space grids:        0.0000161765
  Total charge density g-space grids:           0.0000161765

  Overlap energy of the core charge distribution:               0.00000008767680
  Self energy of the core charge distribution:               -106.68006341412169
  Core Hamiltonian energy:                                     37.04504855575990
  Hartree energy:                                              42.00002733696881
  Exchange-correlation energy:                                -14.13630194785751

  Total energy:                                               -41.77128938157367

  outer SCF iter =    2 RMS gradient =   0.48E-01 energy =        -41.7712893816

  ----------------------------------- OT ---------------------------------------
  Minimizer      : DIIS                : direct inversion
                                         in the iterative subspace
                                         using   7 DIIS vectors
                                         safer DIIS on
  Preconditioner : FULL_KINETIC        : inversion of T + eS
  Precond_solver : DEFAULT
  stepsize       :    0.15000000                  energy_gap     :    0.20000000
  eps_taylor     :   0.10000E-15                  max_taylor     :             4
  ----------------------------------- OT ---------------------------------------

  Step     Update method      Time    Convergence         Total energy    Change
  ------------------------------------------------------------------------------
     1 OT DIIS     0.15E+00    4.9     0.03978161       -42.2869143550 -5.16E-01

  Leaving inner SCF loop after reaching     1 steps.


  Electronic density on regular grids:        -31.9999828639        0.0000171361
  Core density on regular grids:               31.9999999972       -0.0000000028
  Total charge density on r-space grids:        0.0000171333
  Total charge density g-space grids:           0.0000171333

  Overlap energy of the core charge distribution:               0.00000008767680
  Self energy of the core charge distribution:               -106.68006341412169
  Core Hamiltonian energy:                                     36.37751973878024
  Hartree energy:                                              42.13635107398459
  Exchange-correlation energy:                                -14.12072184133527

  Total energy:                                               -42.28691435501533

  outer SCF iter =    3 RMS gradient =   0.40E-01 energy =        -42.2869143550

  ----------------------------------- OT ---------------------------------------
  Minimizer      : DIIS                : direct inversion
                                         in the iterative subspace
                                         using   7 DIIS vectors
                                         safer DIIS on
  Preconditioner : FULL_KINETIC        : inversion of T + eS
  Precond_solver : DEFAULT
  stepsize       :    0.15000000                  energy_gap     :    0.20000000
  eps_taylor     :   0.10000E-15                  max_taylor     :             4
  ----------------------------------- OT ---------------------------------------

  Step     Update method      Time    Convergence         Total energy    Change
  ------------------------------------------------------------------------------
     1 OT DIIS     0.15E+00    6.8     0.03502935       -42.6583968311 -3.71E-01

  Leaving inner SCF loop after reaching     1 steps.


  Electronic density on regular grids:        -31.9999821361        0.0000178639
  Core density on regular grids:               31.9999999972       -0.0000000028
  Total charge density on r-space grids:        0.0000178612
  Total charge density g-space grids:           0.0000178612

  Overlap energy of the core charge distribution:               0.00000008767680
  Self energy of the core charge distribution:               -106.68006341412169
  Core Hamiltonian energy:                                     35.91991533114206
  Hartree energy:                                              42.21538358280944
  Exchange-correlation energy:                                -14.11363241859978

  Total energy:                                               -42.65839683109316

  outer SCF iter =    4 RMS gradient =   0.35E-01 energy =        -42.6583968311

  ----------------------------------- OT ---------------------------------------
  Minimizer      : DIIS                : direct inversion
                                         in the iterative subspace
                                         using   7 DIIS vectors
                                         safer DIIS on
  Preconditioner : FULL_KINETIC        : inversion of T + eS
  Precond_solver : DEFAULT
  stepsize       :    0.15000000                  energy_gap     :    0.20000000
  eps_taylor     :   0.10000E-15                  max_taylor     :             4
  ----------------------------------- OT ---------------------------------------

  Step     Update method      Time    Convergence         Total energy    Change
  ------------------------------------------------------------------------------
     1 OT DIIS     0.15E+00    8.7     0.03147532       -42.9494900687 -2.91E-01

  Leaving inner SCF loop after reaching     1 steps.


  Electronic density on regular grids:        -31.9999815376        0.0000184624
  Core density on regular grids:               31.9999999972       -0.0000000028
  Total charge density on r-space grids:        0.0000184596
  Total charge density g-space grids:           0.0000184596

  Overlap energy of the core charge distribution:               0.00000008767680
  Self energy of the core charge distribution:               -106.68006341412169
  Core Hamiltonian energy:                                     35.57919812319483
  Hartree energy:                                              42.26209329866958
  Exchange-correlation energy:                                -14.11071816415122

  Total energy:                                               -42.94949006873169

  outer SCF iter =    5 RMS gradient =   0.31E-01 energy =        -42.9494900687

  ----------------------------------- OT ---------------------------------------
  Minimizer      : DIIS                : direct inversion
                                         in the iterative subspace
                                         using   7 DIIS vectors
                                         safer DIIS on
  Preconditioner : FULL_KINETIC        : inversion of T + eS
  Precond_solver : DEFAULT
  stepsize       :    0.15000000                  energy_gap     :    0.20000000
  eps_taylor     :   0.10000E-15                  max_taylor     :             4
  ----------------------------------- OT ---------------------------------------

  Step     Update method      Time    Convergence         Total energy    Change
  ------------------------------------------------------------------------------
     1 OT DIIS     0.15E+00   10.6     0.02849078       -43.1853581331 -2.36E-01

  Leaving inner SCF loop after reaching     1 steps.


  Electronic density on regular grids:        -31.9999810300        0.0000189700
  Core density on regular grids:               31.9999999972       -0.0000000028
  Total charge density on r-space grids:        0.0000189672
  Total charge density g-space grids:           0.0000189672

  Overlap energy of the core charge distribution:               0.00000008767680
  Self energy of the core charge distribution:               -106.68006341412169
  Core Hamiltonian energy:                                     35.31805031698901
  Hartree energy:                                              42.28690234904872
  Exchange-correlation energy:                                -14.11024747266989

  Total energy:                                               -43.18535813307704

  outer SCF iter =    6 RMS gradient =   0.28E-01 energy =        -43.1853581331

  ----------------------------------- OT ---------------------------------------
  Minimizer      : DIIS                : direct inversion
                                         in the iterative subspace
                                         using   7 DIIS vectors
                                         safer DIIS on
  Preconditioner : FULL_KINETIC        : inversion of T + eS
  Precond_solver : DEFAULT
  stepsize       :    0.15000000                  energy_gap     :    0.20000000
  eps_taylor     :   0.10000E-15                  max_taylor     :             4
  ----------------------------------- OT ---------------------------------------

  Step     Update method      Time    Convergence         Total energy    Change
  ------------------------------------------------------------------------------
     1 OT DIIS     0.15E+00   12.5     0.02583304       -43.3787162354 -1.93E-01

  Leaving inner SCF loop after reaching     1 steps.


  Electronic density on regular grids:        -31.9999805912        0.0000194088
  Core density on regular grids:               31.9999999972       -0.0000000028
  Total charge density on r-space grids:        0.0000194061
  Total charge density g-space grids:           0.0000194061

  Overlap energy of the core charge distribution:               0.00000008767680
  Self energy of the core charge distribution:               -106.68006341412169
  Core Hamiltonian energy:                                     35.11666314764732
  Hartree energy:                                              42.29600917166596
  Exchange-correlation energy:                                -14.11132522827939

  Total energy:                                               -43.37871623541098

  outer SCF iter =    7 RMS gradient =   0.26E-01 energy =        -43.3787162354

  ----------------------------------- OT ---------------------------------------
  Minimizer      : DIIS                : direct inversion
                                         in the iterative subspace
                                         using   7 DIIS vectors
                                         safer DIIS on
  Preconditioner : FULL_KINETIC        : inversion of T + eS
  Precond_solver : DEFAULT
  stepsize       :    0.15000000                  energy_gap     :    0.20000000
  eps_taylor     :   0.10000E-15                  max_taylor     :             4
  ----------------------------------- OT ---------------------------------------

  Step     Update method      Time    Convergence         Total energy    Change
  ------------------------------------------------------------------------------
     1 OT DIIS     0.15E+00   14.5     0.02341911       -43.5375992125 -1.59E-01

  Leaving inner SCF loop after reaching     1 steps.


  Electronic density on regular grids:        -31.9999802075        0.0000197925
  Core density on regular grids:               31.9999999972       -0.0000000028
  Total charge density on r-space grids:        0.0000197897
  Total charge density g-space grids:           0.0000197897

  Overlap energy of the core charge distribution:               0.00000008767680
  Self energy of the core charge distribution:               -106.68006341412169
  Core Hamiltonian energy:                                     34.96182541778012
  Hartree energy:                                              42.29404283414986
  Exchange-correlation energy:                                -14.11340413796388

  Total energy:                                               -43.53759921247878

  outer SCF iter =    8 RMS gradient =   0.23E-01 energy =        -43.5375992125

  ----------------------------------- OT ---------------------------------------
  Minimizer      : DIIS                : direct inversion
                                         in the iterative subspace
                                         using   7 DIIS vectors
                                         safer DIIS on
  Preconditioner : FULL_KINETIC        : inversion of T + eS
  Precond_solver : DEFAULT
  stepsize       :    0.15000000                  energy_gap     :    0.20000000
  eps_taylor     :   0.10000E-15                  max_taylor     :             4
  ----------------------------------- OT ---------------------------------------

  Step     Update method      Time    Convergence         Total energy    Change
  ------------------------------------------------------------------------------
     1 OT DIIS     0.15E+00   16.4     0.02123216       -43.6681199881 -1.31E-01

  Leaving inner SCF loop after reaching     1 steps.


  Electronic density on regular grids:        -31.9999798705        0.0000201295
  Core density on regular grids:               31.9999999972       -0.0000000028
  Total charge density on r-space grids:        0.0000201268
  Total charge density g-space grids:           0.0000201268

  Overlap energy of the core charge distribution:               0.00000008767680
  Self energy of the core charge distribution:               -106.68006341412169
  Core Hamiltonian energy:                                     34.84347472642909
  Hartree energy:                                              42.28460147376017
  Exchange-correlation energy:                                -14.11613286182348

  Total energy:                                               -43.66811998807911

  outer SCF iter =    9 RMS gradient =   0.21E-01 energy =        -43.6681199881

  ----------------------------------- OT ---------------------------------------
  Minimizer      : DIIS                : direct inversion
                                         in the iterative subspace
                                         using   7 DIIS vectors
                                         safer DIIS on
  Preconditioner : FULL_KINETIC        : inversion of T + eS
  Precond_solver : DEFAULT
  stepsize       :    0.15000000                  energy_gap     :    0.20000000
  eps_taylor     :   0.10000E-15                  max_taylor     :             4
  ----------------------------------- OT ---------------------------------------

  Step     Update method      Time    Convergence         Total energy    Change
  ------------------------------------------------------------------------------
     1 OT DIIS     0.15E+00   18.3     0.01927641       -43.7754282116 -1.07E-01

  Leaving inner SCF loop after reaching     1 steps.


  Electronic density on regular grids:        -31.9999795738        0.0000204262
  Core density on regular grids:               31.9999999972       -0.0000000028
  Total charge density on r-space grids:        0.0000204234
  Total charge density g-space grids:           0.0000204234

  Overlap energy of the core charge distribution:               0.00000008767680
  Self energy of the core charge distribution:               -106.68006341412169
  Core Hamiltonian energy:                                     34.75357642999492
  Hartree energy:                                              42.27035185727218
  Exchange-correlation energy:                                -14.11929317238374

  Total energy:                                               -43.77542821156150

  outer SCF iter =   10 RMS gradient =   0.19E-01 energy =        -43.7754282116

  ----------------------------------- OT ---------------------------------------
  Minimizer      : DIIS                : direct inversion
                                         in the iterative subspace
                                         using   7 DIIS vectors
                                         safer DIIS on
  Preconditioner : FULL_KINETIC        : inversion of T + eS
  Precond_solver : DEFAULT
  stepsize       :    0.15000000                  energy_gap     :    0.20000000
  eps_taylor     :   0.10000E-15                  max_taylor     :             4
  ----------------------------------- OT ---------------------------------------

  Step     Update method      Time    Convergence         Total energy    Change
  ------------------------------------------------------------------------------
     1 OT DIIS     0.15E+00   20.2     0.01755627       -43.8639798536 -8.86E-02

  Leaving inner SCF loop after reaching     1 steps.


  Electronic density on regular grids:        -31.9999793123        0.0000206877
  Core density on regular grids:               31.9999999972       -0.0000000028
  Total charge density on r-space grids:        0.0000206849
  Total charge density g-space grids:           0.0000206849

  Overlap energy of the core charge distribution:               0.00000008767680
  Self energy of the core charge distribution:               -106.68006341412169
  Core Hamiltonian energy:                                     34.68571501733668
  Hartree energy:                                              42.25312868031154
  Exchange-correlation energy:                                -14.12276022476340

  Total energy:                                               -43.86397985356005

  outer SCF iter =   11 RMS gradient =   0.18E-01 energy =        -43.8639798536

  ----------------------------------- OT ---------------------------------------
  Minimizer      : DIIS                : direct inversion
                                         in the iterative subspace
                                         using   7 DIIS vectors
                                         safer DIIS on
  Preconditioner : FULL_KINETIC        : inversion of T + eS
  Precond_solver : DEFAULT
  stepsize       :    0.15000000                  energy_gap     :    0.20000000
  eps_taylor     :   0.10000E-15                  max_taylor     :             4
  ----------------------------------- OT ---------------------------------------

  Step     Update method      Time    Convergence         Total energy    Change
  ------------------------------------------------------------------------------
     1 OT DIIS     0.15E+00   22.1     0.01606869       -43.9375847310 -7.36E-02

  Leaving inner SCF loop after reaching     1 steps.


  Electronic density on regular grids:        -31.9999790810        0.0000209190
  Core density on regular grids:               31.9999999972       -0.0000000028
  Total charge density on r-space grids:        0.0000209162
  Total charge density g-space grids:           0.0000209162

  Overlap energy of the core charge distribution:               0.00000008767680
  Self energy of the core charge distribution:               -106.68006341412169
  Core Hamiltonian energy:                                     34.63485968243544
  Hartree energy:                                              42.23409050053801
  Exchange-correlation energy:                                -14.12647158749130

  Total energy:                                               -43.93758473096272

  outer SCF iter =   12 RMS gradient =   0.16E-01 energy =        -43.9375847310

  ----------------------------------- OT ---------------------------------------
  Minimizer      : DIIS                : direct inversion
                                         in the iterative subspace
                                         using   7 DIIS vectors
                                         safer DIIS on
  Preconditioner : FULL_KINETIC        : inversion of T + eS
  Precond_solver : DEFAULT
  stepsize       :    0.15000000                  energy_gap     :    0.20000000
  eps_taylor     :   0.10000E-15                  max_taylor     :             4
  ----------------------------------- OT ---------------------------------------

  Step     Update method      Time    Convergence         Total energy    Change
  ------------------------------------------------------------------------------
     1 OT DIIS     0.15E+00   24.1     0.01480226       -43.9994213967 -6.18E-02

  Leaving inner SCF loop after reaching     1 steps.


  Electronic density on regular grids:        -31.9999788749        0.0000211251
  Core density on regular grids:               31.9999999972       -0.0000000028
  Total charge density on r-space grids:        0.0000211223
  Total charge density g-space grids:           0.0000211223

  Overlap energy of the core charge distribution:               0.00000008767680
  Self energy of the core charge distribution:               -106.68006341412169
  Core Hamiltonian energy:                                     34.59714827598943
  Hartree energy:                                              42.21389692493072
  Exchange-correlation energy:                                -14.13040327114419

  Total energy:                                               -43.99942139666891

  outer SCF iter =   13 RMS gradient =   0.15E-01 energy =        -43.9994213967

  ----------------------------------- OT ---------------------------------------
  Minimizer      : DIIS                : direct inversion
                                         in the iterative subspace
                                         using   7 DIIS vectors
                                         safer DIIS on
  Preconditioner : FULL_KINETIC        : inversion of T + eS
  Precond_solver : DEFAULT
  stepsize       :    0.15000000                  energy_gap     :    0.20000000
  eps_taylor     :   0.10000E-15                  max_taylor     :             4
  ----------------------------------- OT ---------------------------------------

  Step     Update method      Time    Convergence         Total energy    Change
  ------------------------------------------------------------------------------
     1 OT DIIS     0.15E+00   26.0     0.01373913       -44.0520770986 -5.27E-02

  Leaving inner SCF loop after reaching     1 steps.


  Electronic density on regular grids:        -31.9999786895        0.0000213105
  Core density on regular grids:               31.9999999972       -0.0000000028
  Total charge density on r-space grids:        0.0000213077
  Total charge density g-space grids:           0.0000213077

  Overlap energy of the core charge distribution:               0.00000008767680
  Self energy of the core charge distribution:               -106.68006341412169
  Core Hamiltonian energy:                                     34.56966800708000
  Hartree energy:                                              42.19287070580842
  Exchange-correlation energy:                                -14.13455248502488

  Total energy:                                               -44.05207709858134

  outer SCF iter =   14 RMS gradient =   0.14E-01 energy =        -44.0520770986

  ----------------------------------- OT ---------------------------------------
  Minimizer      : DIIS                : direct inversion
                                         in the iterative subspace
                                         using   7 DIIS vectors
                                         safer DIIS on
  Preconditioner : FULL_KINETIC        : inversion of T + eS
  Precond_solver : DEFAULT
  stepsize       :    0.15000000                  energy_gap     :    0.20000000
  eps_taylor     :   0.10000E-15                  max_taylor     :             4
  ----------------------------------- OT ---------------------------------------

  Step     Update method      Time    Convergence         Total energy    Change
  ------------------------------------------------------------------------------
     1 OT DIIS     0.15E+00   27.9     0.01285755       -44.0976151690 -4.55E-02

  Leaving inner SCF loop after reaching     1 steps.


  Electronic density on regular grids:        -31.9999785203        0.0000214797
  Core density on regular grids:               31.9999999972       -0.0000000028
  Total charge density on r-space grids:        0.0000214769
  Total charge density g-space grids:           0.0000214769

  Overlap energy of the core charge distribution:               0.00000008767680
  Self energy of the core charge distribution:               -106.68006341412169
  Core Hamiltonian energy:                                     34.55024744334644
  Hartree energy:                                              42.17112688149035
  Exchange-correlation energy:                                -14.13892616734410

  Total energy:                                               -44.09761516895220

  outer SCF iter =   15 RMS gradient =   0.13E-01 energy =        -44.0976151690

  ----------------------------------- OT ---------------------------------------
  Minimizer      : DIIS                : direct inversion
                                         in the iterative subspace
                                         using   7 DIIS vectors
                                         safer DIIS on
  Preconditioner : FULL_KINETIC        : inversion of T + eS
  Precond_solver : DEFAULT
  stepsize       :    0.15000000                  energy_gap     :    0.20000000
  eps_taylor     :   0.10000E-15                  max_taylor     :             4
  ----------------------------------- OT ---------------------------------------

  Step     Update method      Time    Convergence         Total energy    Change
  ------------------------------------------------------------------------------
     1 OT DIIS     0.15E+00   29.8     0.01213418       -44.1376560423 -4.00E-02

  Leaving inner SCF loop after reaching     1 steps.


  Electronic density on regular grids:        -31.9999783635        0.0000216365
  Core density on regular grids:               31.9999999972       -0.0000000028
  Total charge density on r-space grids:        0.0000216337
  Total charge density g-space grids:           0.0000216337

  Overlap energy of the core charge distribution:               0.00000008767680
  Self energy of the core charge distribution:               -106.68006341412169
  Core Hamiltonian energy:                                     34.53727498793356
  Hartree energy:                                              42.14866617073630
  Exchange-correlation energy:                                -14.14353387450797

  Total energy:                                               -44.13765604228299

  outer SCF iter =   16 RMS gradient =   0.12E-01 energy =        -44.1376560423

  ----------------------------------- OT ---------------------------------------
  Minimizer      : DIIS                : direct inversion
                                         in the iterative subspace
                                         using   7 DIIS vectors
                                         safer DIIS on
  Preconditioner : FULL_KINETIC        : inversion of T + eS
  Precond_solver : DEFAULT
  stepsize       :    0.15000000                  energy_gap     :    0.20000000
  eps_taylor     :   0.10000E-15                  max_taylor     :             4
  ----------------------------------- OT ---------------------------------------

  Step     Update method      Time    Convergence         Total energy    Change
  ------------------------------------------------------------------------------
     1 OT DIIS     0.15E+00   31.7     0.01154580       -44.1734585239 -3.58E-02

  Leaving inner SCF loop after reaching     1 steps.


  Electronic density on regular grids:        -31.9999782157        0.0000217843
  Core density on regular grids:               31.9999999972       -0.0000000028
  Total charge density on r-space grids:        0.0000217815
  Total charge density g-space grids:           0.0000217815

  Overlap energy of the core charge distribution:               0.00000008767680
  Self energy of the core charge distribution:               -106.68006341412169
  Core Hamiltonian energy:                                     34.52955083554761
  Hartree energy:                                              42.12543761235811
  Exchange-correlation energy:                                -14.14838364534764

  Total energy:                                               -44.17345852388679

  outer SCF iter =   17 RMS gradient =   0.12E-01 energy =        -44.1734585239

  ----------------------------------- OT ---------------------------------------
  Minimizer      : DIIS                : direct inversion
                                         in the iterative subspace
                                         using   7 DIIS vectors
                                         safer DIIS on
  Preconditioner : FULL_KINETIC        : inversion of T + eS
  Precond_solver : DEFAULT
  stepsize       :    0.15000000                  energy_gap     :    0.20000000
  eps_taylor     :   0.10000E-15                  max_taylor     :             4
  ----------------------------------- OT ---------------------------------------

  Step     Update method      Time    Convergence         Total energy    Change
  ------------------------------------------------------------------------------
     1 OT DIIS     0.15E+00   33.7     0.01107039       -44.2059930144 -3.25E-02

  Leaving inner SCF loop after reaching     1 steps.


  Electronic density on regular grids:        -31.9999780741        0.0000219259
  Core density on regular grids:               31.9999999972       -0.0000000028
  Total charge density on r-space grids:        0.0000219232
  Total charge density g-space grids:           0.0000219232

  Overlap energy of the core charge distribution:               0.00000008767680
  Self energy of the core charge distribution:               -106.68006341412169
  Core Hamiltonian energy:                                     34.52617220728070
  Hartree energy:                                              42.10137785155214
  Exchange-correlation energy:                                -14.15347974675592

  Total energy:                                               -44.20599301436797

  outer SCF iter =   18 RMS gradient =   0.11E-01 energy =        -44.2059930144

  ----------------------------------- OT ---------------------------------------
  Minimizer      : DIIS                : direct inversion
                                         in the iterative subspace
                                         using   7 DIIS vectors
                                         safer DIIS on
  Preconditioner : FULL_KINETIC        : inversion of T + eS
  Precond_solver : DEFAULT
  stepsize       :    0.15000000                  energy_gap     :    0.20000000
  eps_taylor     :   0.10000E-15                  max_taylor     :             4
  ----------------------------------- OT ---------------------------------------

  Step     Update method      Time    Convergence         Total energy    Change
  ------------------------------------------------------------------------------
     1 OT DIIS     0.15E+00   35.6     0.01068776       -44.2360031766 -3.00E-02

  Leaving inner SCF loop after reaching     1 steps.


  Electronic density on regular grids:        -31.9999779363        0.0000220637
  Core density on regular grids:               31.9999999972       -0.0000000028
  Total charge density on r-space grids:        0.0000220610
  Total charge density g-space grids:           0.0000220610

  Overlap energy of the core charge distribution:               0.00000008767680
  Self energy of the core charge distribution:               -106.68006341412169
  Core Hamiltonian energy:                                     34.52644763321407
  Hartree energy:                                              42.07643406576212
  Exchange-correlation energy:                                -14.15882154910257

  Total energy:                                               -44.23600317657127

  outer SCF iter =   19 RMS gradient =   0.11E-01 energy =        -44.2360031766

  ----------------------------------- OT ---------------------------------------
  Minimizer      : DIIS                : direct inversion
                                         in the iterative subspace
                                         using   7 DIIS vectors
                                         safer DIIS on
  Preconditioner : FULL_KINETIC        : inversion of T + eS
  Precond_solver : DEFAULT
  stepsize       :    0.15000000                  energy_gap     :    0.20000000
  eps_taylor     :   0.10000E-15                  max_taylor     :             4
  ----------------------------------- OT ---------------------------------------

  Step     Update method      Time    Convergence         Total energy    Change
  ------------------------------------------------------------------------------
     1 OT DIIS     0.15E+00   37.5     0.01037992       -44.2640556791 -2.81E-02

  Leaving inner SCF loop after reaching     1 steps.


  Electronic density on regular grids:        -31.9999778004        0.0000221996
  Core density on regular grids:               31.9999999972       -0.0000000028
  Total charge density on r-space grids:        0.0000221968
  Total charge density g-space grids:           0.0000221968

  Overlap energy of the core charge distribution:               0.00000008767680
  Self energy of the core charge distribution:               -106.68006341412169
  Core Hamiltonian energy:                                     34.52983466251904
  Hartree energy:                                              42.05057605494704
  Exchange-correlation energy:                                -14.16440307013644

  Total energy:                                               -44.26405567911526

  outer SCF iter =   20 RMS gradient =   0.10E-01 energy =        -44.2640556791

  ----------------------------------- OT ---------------------------------------
  Minimizer      : DIIS                : direct inversion
                                         in the iterative subspace
                                         using   7 DIIS vectors
                                         safer DIIS on
  Preconditioner : FULL_KINETIC        : inversion of T + eS
  Precond_solver : DEFAULT
  stepsize       :    0.15000000                  energy_gap     :    0.20000000
  eps_taylor     :   0.10000E-15                  max_taylor     :             4
  ----------------------------------- OT ---------------------------------------

  Step     Update method      Time    Convergence         Total energy    Change
  ------------------------------------------------------------------------------
     1 OT DIIS     0.15E+00   39.5     0.01013106       -44.2905792886 -2.65E-02

  Leaving inner SCF loop after reaching     1 steps.


  Electronic density on regular grids:        -31.9999776651        0.0000223349
  Core density on regular grids:               31.9999999972       -0.0000000028
  Total charge density on r-space grids:        0.0000223321
  Total charge density g-space grids:           0.0000223321

  Overlap energy of the core charge distribution:               0.00000008767680
  Self energy of the core charge distribution:               -106.68006341412169
  Core Hamiltonian energy:                                     34.53589555121354
  Hartree energy:                                              42.02380142274105
  Exchange-correlation energy:                                -14.17021293613255

  Total energy:                                               -44.29057928862284

  outer SCF iter =   21 RMS gradient =   0.10E-01 energy =        -44.2905792886

  ----------------------------------- OT ---------------------------------------
  Minimizer      : DIIS                : direct inversion
                                         in the iterative subspace
                                         using   7 DIIS vectors
                                         safer DIIS on
  Preconditioner : FULL_KINETIC        : inversion of T + eS
  Precond_solver : DEFAULT
  stepsize       :    0.15000000                  energy_gap     :    0.20000000
  eps_taylor     :   0.10000E-15                  max_taylor     :             4
  ----------------------------------- OT ---------------------------------------

  Step     Update method      Time    Convergence         Total energy    Change
  ------------------------------------------------------------------------------
     1 OT DIIS     0.15E+00   41.5     0.00992763       -44.3158952036 -2.53E-02

  Leaving inner SCF loop after reaching     1 steps.


  Electronic density on regular grids:        -31.9999775294        0.0000224706
  Core density on regular grids:               31.9999999972       -0.0000000028
  Total charge density on r-space grids:        0.0000224679
  Total charge density g-space grids:           0.0000224679

  Overlap energy of the core charge distribution:               0.00000008767680
  Self energy of the core charge distribution:               -106.68006341412169
  Core Hamiltonian energy:                                     34.54426633419390
  Hartree energy:                                              41.99613643287078
  Exchange-correlation energy:                                -14.17623464420388

  Total energy:                                               -44.31589520358408

  outer SCF iter =   22 RMS gradient =   0.99E-02 energy =        -44.3158952036

  ----------------------------------- OT ---------------------------------------
  Minimizer      : DIIS                : direct inversion
                                         in the iterative subspace
                                         using   7 DIIS vectors
                                         safer DIIS on
  Preconditioner : FULL_KINETIC        : inversion of T + eS
  Precond_solver : DEFAULT
  stepsize       :    0.15000000                  energy_gap     :    0.20000000
  eps_taylor     :   0.10000E-15                  max_taylor     :             4
  ----------------------------------- OT ---------------------------------------

  Step     Update method      Time    Convergence         Total energy    Change
  ------------------------------------------------------------------------------
     1 OT DIIS     0.15E+00   43.4     0.00975812       -44.3402405712 -2.43E-02

  Leaving inner SCF loop after reaching     1 steps.


  Electronic density on regular grids:        -31.9999773924        0.0000226076
  Core density on regular grids:               31.9999999972       -0.0000000028
  Total charge density on r-space grids:        0.0000226049
  Total charge density g-space grids:           0.0000226049

  Overlap energy of the core charge distribution:               0.00000008767680
  Self energy of the core charge distribution:               -106.68006341412169
  Core Hamiltonian energy:                                     34.55463570017842
  Hartree energy:                                              41.96763414075739
  Exchange-correlation energy:                                -14.18244708571091

  Total energy:                                               -44.34024057121998

  outer SCF iter =   23 RMS gradient =   0.98E-02 energy =        -44.3402405712

  ----------------------------------- OT ---------------------------------------
  Minimizer      : DIIS                : direct inversion
                                         in the iterative subspace
                                         using   7 DIIS vectors
                                         safer DIIS on
  Preconditioner : FULL_KINETIC        : inversion of T + eS
  Precond_solver : DEFAULT
  stepsize       :    0.15000000                  energy_gap     :    0.20000000
  eps_taylor     :   0.10000E-15                  max_taylor     :             4
  ----------------------------------- OT ---------------------------------------

  Step     Update method      Time    Convergence         Total energy    Change
  ------------------------------------------------------------------------------
     1 OT DIIS     0.15E+00   45.3     0.00961302       -44.3637869037 -2.35E-02

  Leaving inner SCF loop after reaching     1 steps.


  Electronic density on regular grids:        -31.9999772537        0.0000227463
  Core density on regular grids:               31.9999999972       -0.0000000028
  Total charge density on r-space grids:        0.0000227435
  Total charge density g-space grids:           0.0000227435

  Overlap energy of the core charge distribution:               0.00000008767680
  Self energy of the core charge distribution:               -106.68006341412169
  Core Hamiltonian energy:                                     34.56673099618624
  Hartree energy:                                              41.93837074986045
  Exchange-correlation energy:                                -14.18882532333788

  Total energy:                                               -44.36378690373606

  outer SCF iter =   24 RMS gradient =   0.96E-02 energy =        -44.3637869037

  ----------------------------------- OT ---------------------------------------
  Minimizer      : DIIS                : direct inversion
                                         in the iterative subspace
                                         using   7 DIIS vectors
                                         safer DIIS on
  Preconditioner : FULL_KINETIC        : inversion of T + eS
  Precond_solver : DEFAULT
  stepsize       :    0.15000000                  energy_gap     :    0.20000000
  eps_taylor     :   0.10000E-15                  max_taylor     :             4
  ----------------------------------- OT ---------------------------------------

  Step     Update method      Time    Convergence         Total energy    Change
  ------------------------------------------------------------------------------
     1 OT DIIS     0.15E+00   47.2     0.00948463       -44.3866547834 -2.29E-02

  Leaving inner SCF loop after reaching     1 steps.


  Electronic density on regular grids:        -31.9999771133        0.0000228867
  Core density on regular grids:               31.9999999972       -0.0000000028
  Total charge density on r-space grids:        0.0000228840
  Total charge density g-space grids:           0.0000228840

  Overlap energy of the core charge distribution:               0.00000008767680
  Self energy of the core charge distribution:               -106.68006341412169
  Core Hamiltonian energy:                                     34.58030939965273
  Hartree energy:                                              41.90844075992865
  Exchange-correlation energy:                                -14.19534161650001

  Total energy:                                               -44.38665478336350

  outer SCF iter =   25 RMS gradient =   0.95E-02 energy =        -44.3866547834

  ----------------------------------- OT ---------------------------------------
  Minimizer      : DIIS                : direct inversion
                                         in the iterative subspace
                                         using   7 DIIS vectors
                                         safer DIIS on
  Preconditioner : FULL_KINETIC        : inversion of T + eS
  Precond_solver : DEFAULT
  stepsize       :    0.15000000                  energy_gap     :    0.20000000
  eps_taylor     :   0.10000E-15                  max_taylor     :             4
  ----------------------------------- OT ---------------------------------------

  Step     Update method      Time    Convergence         Total energy    Change
  ------------------------------------------------------------------------------
     1 OT DIIS     0.15E+00   49.2     0.00936699       -44.4089259039 -2.23E-02

  Leaving inner SCF loop after reaching     1 steps.


  Electronic density on regular grids:        -31.9999769709        0.0000230291
  Core density on regular grids:               31.9999999972       -0.0000000028
  Total charge density on r-space grids:        0.0000230263
  Total charge density g-space grids:           0.0000230263

  Overlap energy of the core charge distribution:               0.00000008767680
  Self energy of the core charge distribution:               -106.68006341412169
  Core Hamiltonian energy:                                     34.59515280626538
  Hartree energy:                                              41.87795128779317
  Exchange-correlation energy:                                -14.20196667147274

  Total energy:                                               -44.40892590385907

  outer SCF iter =   26 RMS gradient =   0.94E-02 energy =        -44.4089259039

  ----------------------------------- OT ---------------------------------------
  Minimizer      : DIIS                : direct inversion
                                         in the iterative subspace
                                         using   7 DIIS vectors
                                         safer DIIS on
  Preconditioner : FULL_KINETIC        : inversion of T + eS
  Precond_solver : DEFAULT
[...]

  outer SCF iter =   36 RMS gradient =   0.84E-02 energy =        -44.6052285264

  ----------------------------------- OT ---------------------------------------
  Minimizer      : DIIS                : direct inversion
                                         in the iterative subspace
                                         using   7 DIIS vectors
                                         safer DIIS on
  Preconditioner : FULL_KINETIC        : inversion of T + eS
  Precond_solver : DEFAULT
  stepsize       :    0.15000000                  energy_gap     :    0.20000000
  eps_taylor     :   0.10000E-15                  max_taylor     :             4
  ----------------------------------- OT ---------------------------------------

  Step     Update method      Time    Convergence         Total energy    Change
  ------------------------------------------------------------------------------
     1 OT DIIS     0.15E+00   70.3     0.00832366       -44.6226925421 -1.75E-02

  Leaving inner SCF loop after reaching     1 steps.


  Electronic density on regular grids:        -31.9999753570        0.0000246430
  Core density on regular grids:               31.9999999972       -0.0000000028
  Total charge density on r-space grids:        0.0000246403
  Total charge density g-space grids:           0.0000246403

  Overlap energy of the core charge distribution:               0.00000008767680
  Self energy of the core charge distribution:               -106.68006341412169
  Core Hamiltonian energy:                                     34.80128801452618
  Hartree energy:                                              41.53208172235344
  Exchange-correlation energy:                                -14.27599895249560

  Total energy:                                               -44.62269254206086

  outer SCF iter =   37 RMS gradient =   0.83E-02 energy =        -44.6226925421

  ----------------------------------- OT ---------------------------------------
  Minimizer      : DIIS                : direct inversion
                                         in the iterative subspace
                                         using   7 DIIS vectors
                                         safer DIIS on
  Preconditioner : FULL_KINETIC        : inversion of T + eS
  Precond_solver : DEFAULT
  stepsize       :    0.15000000                  energy_gap     :    0.20000000
  eps_taylor     :   0.10000E-15                  max_taylor     :             4
  ----------------------------------- OT ---------------------------------------

  Step     Update method      Time    Convergence         Total energy    Change
  ------------------------------------------------------------------------------
     1 OT DIIS     0.15E+00   72.2     0.00826445       -44.6398856375 -1.72E-02

  Leaving inner SCF loop after reaching     1 steps.


  Electronic density on regular grids:        -31.9999752116        0.0000247884
  Core density on regular grids:               31.9999999972       -0.0000000028
  Total charge density on r-space grids:        0.0000247857
  Total charge density g-space grids:           0.0000247857

  Overlap energy of the core charge distribution:               0.00000008767680
  Self energy of the core charge distribution:               -106.68006341412169
  Core Hamiltonian energy:                                     34.82203732292349
  Hartree energy:                                              41.50082508781072
  Exchange-correlation energy:                                -14.28268472179880

  Total energy:                                               -44.63988563750947

  outer SCF iter =   38 RMS gradient =   0.83E-02 energy =        -44.6398856375

  ----------------------------------- OT ---------------------------------------
  Minimizer      : DIIS                : direct inversion
                                         in the iterative subspace
                                         using   7 DIIS vectors
                                         safer DIIS on
  Preconditioner : FULL_KINETIC        : inversion of T + eS
  Precond_solver : DEFAULT
  stepsize       :    0.15000000                  energy_gap     :    0.20000000
  eps_taylor     :   0.10000E-15                  max_taylor     :             4
  ----------------------------------- OT ---------------------------------------

  Step     Update method      Time    Convergence         Total energy    Change
  ------------------------------------------------------------------------------
     1 OT DIIS     0.15E+00   74.1     0.00821150       -44.6568395660 -1.70E-02

  Leaving inner SCF loop after reaching     1 steps.


  Electronic density on regular grids:        -31.9999750665        0.0000249335
  Core density on regular grids:               31.9999999972       -0.0000000028
  Total charge density on r-space grids:        0.0000249307
  Total charge density g-space grids:           0.0000249307

  Overlap energy of the core charge distribution:               0.00000008767680
  Self energy of the core charge distribution:               -106.68006341412169
  Core Hamiltonian energy:                                     34.84300878115560
  Hartree energy:                                              41.46960279271970
  Exchange-correlation energy:                                -14.28938781340340

  Total energy:                                               -44.65683956597299

  outer SCF iter =   39 RMS gradient =   0.82E-02 energy =        -44.6568395660

  ----------------------------------- OT ---------------------------------------
  Minimizer      : DIIS                : direct inversion
                                         in the iterative subspace
                                         using   7 DIIS vectors
                                         safer DIIS on
  Preconditioner : FULL_KINETIC        : inversion of T + eS
  Precond_solver : DEFAULT
  stepsize       :    0.15000000                  energy_gap     :    0.20000000
  eps_taylor     :   0.10000E-15                  max_taylor     :             4
  ----------------------------------- OT ---------------------------------------

  Step     Update method      Time    Convergence         Total energy    Change
  ------------------------------------------------------------------------------
     1 OT DIIS     0.15E+00   76.0     0.00816266       -44.6735791569 -1.67E-02

  Leaving inner SCF loop after reaching     1 steps.


  Electronic density on regular grids:        -31.9999749217        0.0000250783
  Core density on regular grids:               31.9999999972       -0.0000000028
  Total charge density on r-space grids:        0.0000250756
  Total charge density g-space grids:           0.0000250756

  Overlap energy of the core charge distribution:               0.00000008767680
  Self energy of the core charge distribution:               -106.68006341412169
  Core Hamiltonian energy:                                     34.86418147882581
  Hartree energy:                                              41.43841464294010
  Exchange-correlation energy:                                -14.29611195223028

  Total energy:                                               -44.67357915690925

  outer SCF iter =   40 RMS gradient =   0.82E-02 energy =        -44.6735791569

  ----------------------------------- OT ---------------------------------------
  Minimizer      : DIIS                : direct inversion
                                         in the iterative subspace
                                         using   7 DIIS vectors
                                         safer DIIS on
  Preconditioner : FULL_KINETIC        : inversion of T + eS
  Precond_solver : DEFAULT
  stepsize       :    0.15000000                  energy_gap     :    0.20000000
  eps_taylor     :   0.10000E-15                  max_taylor     :             4
  ----------------------------------- OT ---------------------------------------

  Step     Update method      Time    Convergence         Total energy    Change
  ------------------------------------------------------------------------------
     1 OT DIIS     0.15E+00   78.1     0.00811517       -44.6901195589 -1.65E-02

  Leaving inner SCF loop after reaching     1 steps.


  Electronic density on regular grids:        -31.9999747770        0.0000252230
  Core density on regular grids:               31.9999999972       -0.0000000028
  Total charge density on r-space grids:        0.0000252202
  Total charge density g-space grids:           0.0000252202

  Overlap energy of the core charge distribution:               0.00000008767680
  Self energy of the core charge distribution:               -106.68006341412169
  Core Hamiltonian energy:                                     34.88552251140685
  Hartree energy:                                              41.40727677157535
  Exchange-correlation energy:                                -14.30285551547920

  Total energy:                                               -44.69011955894187

  outer SCF iter =   41 RMS gradient =   0.81E-02 energy =        -44.6901195589

  ----------------------------------- OT ---------------------------------------
  Minimizer      : DIIS                : direct inversion
                                         in the iterative subspace
                                         using   7 DIIS vectors
                                         safer DIIS on
  Preconditioner : FULL_KINETIC        : inversion of T + eS
  Precond_solver : DEFAULT
  stepsize       :    0.15000000                  energy_gap     :    0.20000000
  eps_taylor     :   0.10000E-15                  max_taylor     :             4
  ----------------------------------- OT ---------------------------------------

  Step     Update method      Time    Convergence         Total energy    Change
  ------------------------------------------------------------------------------
     1 OT DIIS     0.15E+00   80.0     0.00806574       -44.7064640126 -1.63E-02

  Leaving inner SCF loop after reaching     1 steps.


  Electronic density on regular grids:        -31.9999746324        0.0000253676
  Core density on regular grids:               31.9999999972       -0.0000000028
  Total charge density on r-space grids:        0.0000253648
  Total charge density g-space grids:           0.0000253648

  Overlap energy of the core charge distribution:               0.00000008767680
  Self energy of the core charge distribution:               -106.68006341412169
  Core Hamiltonian energy:                                     34.90698383112798
  Hartree energy:                                              41.37622589707581
  Exchange-correlation energy:                                -14.30961041434428

  Total energy:                                               -44.70646401258536

  outer SCF iter =   42 RMS gradient =   0.81E-02 energy =        -44.7064640126

  ----------------------------------- OT ---------------------------------------
  Minimizer      : DIIS                : direct inversion
                                         in the iterative subspace
                                         using   7 DIIS vectors
                                         safer DIIS on
  Preconditioner : FULL_KINETIC        : inversion of T + eS
  Precond_solver : DEFAULT
  stepsize       :    0.15000000                  energy_gap     :    0.20000000
  eps_taylor     :   0.10000E-15                  max_taylor     :             4
  ----------------------------------- OT ---------------------------------------

  Step     Update method      Time    Convergence         Total energy    Change
  ------------------------------------------------------------------------------
     1 OT DIIS     0.15E+00   81.9     0.00801078       -44.7226023391 -1.61E-02

  Leaving inner SCF loop after reaching     1 steps.


  Electronic density on regular grids:        -31.9999744880        0.0000255120
  Core density on regular grids:               31.9999999972       -0.0000000028
  Total charge density on r-space grids:        0.0000255092
  Total charge density g-space grids:           0.0000255092

  Overlap energy of the core charge distribution:               0.00000008767680
  Self energy of the core charge distribution:               -106.68006341412169
  Core Hamiltonian energy:                                     34.92850026897852
  Hartree energy:                                              41.34532212739701
  Exchange-correlation energy:                                -14.31636140907428

  Total energy:                                               -44.72260233914363

  outer SCF iter =   43 RMS gradient =   0.80E-02 energy =        -44.7226023391

  ----------------------------------- OT ---------------------------------------
  Minimizer      : DIIS                : direct inversion
                                         in the iterative subspace
                                         using   7 DIIS vectors
                                         safer DIIS on
  Preconditioner : FULL_KINETIC        : inversion of T + eS
  Precond_solver : DEFAULT
  stepsize       :    0.15000000                  energy_gap     :    0.20000000
  eps_taylor     :   0.10000E-15                  max_taylor     :             4
  ----------------------------------- OT ---------------------------------------

  Step     Update method      Time    Convergence         Total energy    Change
  ------------------------------------------------------------------------------
     1 OT DIIS     0.15E+00   83.8     0.00794661       -44.7385102820 -1.59E-02

  Leaving inner SCF loop after reaching     1 steps.


  Electronic density on regular grids:        -31.9999743439        0.0000256561
  Core density on regular grids:               31.9999999972       -0.0000000028
  Total charge density on r-space grids:        0.0000256533
  Total charge density g-space grids:           0.0000256533

  Overlap energy of the core charge distribution:               0.00000008767680
  Self energy of the core charge distribution:               -106.68006341412169
  Core Hamiltonian energy:                                     34.94998889948474
  Hartree energy:                                              41.31465006464830
  Exchange-correlation energy:                                -14.32308591969831

  Total energy:                                               -44.73851028201017

  outer SCF iter =   44 RMS gradient =   0.79E-02 energy =        -44.7385102820

  ----------------------------------- OT ---------------------------------------
  Minimizer      : DIIS                : direct inversion
                                         in the iterative subspace
                                         using   7 DIIS vectors
                                         safer DIIS on
  Preconditioner : FULL_KINETIC        : inversion of T + eS
  Precond_solver : DEFAULT
  stepsize       :    0.15000000                  energy_gap     :    0.20000000
  eps_taylor     :   0.10000E-15                  max_taylor     :             4
  ----------------------------------- OT ---------------------------------------

  Step     Update method      Time    Convergence         Total energy    Change
  ------------------------------------------------------------------------------
     1 OT DIIS     0.15E+00   85.7     0.00786965       -44.7541497841 -1.56E-02

  Leaving inner SCF loop after reaching     1 steps.


  Electronic density on regular grids:        -31.9999742003        0.0000257997
  Core density on regular grids:               31.9999999972       -0.0000000028
  Total charge density on r-space grids:        0.0000257969
  Total charge density g-space grids:           0.0000257969

  Overlap energy of the core charge distribution:               0.00000008767680
  Self energy of the core charge distribution:               -106.68006341412169
  Core Hamiltonian energy:                                     34.97134984310528
  Hartree energy:                                              41.28431806887708
  Exchange-correlation energy:                                -14.32975436961455

  Total energy:                                               -44.75414978407706

  outer SCF iter =   45 RMS gradient =   0.79E-02 energy =        -44.7541497841

  ----------------------------------- OT ---------------------------------------
  Minimizer      : DIIS                : direct inversion
                                         in the iterative subspace
                                         using   7 DIIS vectors
                                         safer DIIS on
  Preconditioner : FULL_KINETIC        : inversion of T + eS
  Precond_solver : DEFAULT
  stepsize       :    0.15000000                  energy_gap     :    0.20000000
  eps_taylor     :   0.10000E-15                  max_taylor     :             4
  ----------------------------------- OT ---------------------------------------

  Step     Update method      Time    Convergence         Total energy    Change
  ------------------------------------------------------------------------------
     1 OT DIIS     0.15E+00   87.7     0.00777664       -44.7694702285 -1.53E-02

  Leaving inner SCF loop after reaching     1 steps.


  Electronic density on regular grids:        -31.9999740577        0.0000259423
  Core density on regular grids:               31.9999999972       -0.0000000028
  Total charge density on r-space grids:        0.0000259396
  Total charge density g-space grids:           0.0000259396

  Overlap energy of the core charge distribution:               0.00000008767680
  Self energy of the core charge distribution:               -106.68006341412169
  Core Hamiltonian energy:                                     34.99246850954268
  Hartree energy:                                              41.25445565746335
  Exchange-correlation energy:                                -14.33633106905915

  Total energy:                                               -44.76947022849800

  outer SCF iter =   46 RMS gradient =   0.78E-02 energy =        -44.7694702285

  ----------------------------------- OT ---------------------------------------
  Minimizer      : DIIS                : direct inversion
                                         in the iterative subspace
                                         using   7 DIIS vectors
                                         safer DIIS on
  Preconditioner : FULL_KINETIC        : inversion of T + eS
  Precond_solver : DEFAULT
  stepsize       :    0.15000000                  energy_gap     :    0.20000000
  eps_taylor     :   0.10000E-15                  max_taylor     :             4
  ----------------------------------- OT ---------------------------------------

  Step     Update method      Time    Convergence         Total energy    Change
  ------------------------------------------------------------------------------
     1 OT DIIS     0.15E+00   89.6     0.00766482       -44.7844106072 -1.49E-02

  Leaving inner SCF loop after reaching     1 steps.


  Electronic density on regular grids:        -31.9999739164        0.0000260836
  Core density on regular grids:               31.9999999972       -0.0000000028
  Total charge density on r-space grids:        0.0000260808
  Total charge density g-space grids:           0.0000260808

  Overlap energy of the core charge distribution:               0.00000008767680
  Self energy of the core charge distribution:               -106.68006341412169
  Core Hamiltonian energy:                                     35.01321918023883
  Hartree energy:                                              41.22520914763539
  Exchange-correlation energy:                                -14.34277560864701

  Total energy:                                               -44.78441060721767
