#     Step Nr.          Time[fs]        Kin.[a.u.]          Temp[K]            Pot.[a.u.]        Cons Qty[a.u.]        UsedTime[s]
         0            0.000000         0.000950045       200.000000000       -17.219267542       -17.218317498         0.000000000
         1            0.500000         0.001027475       216.300410329       -17.219416467       -17.218319376       100.167622505
         2            1.000000         0.000970495       204.305208722       -17.219505256       -17.218320282        30.677677279
         3            1.500000         0.001019175       214.553143358       -17.219533603       -17.218320307        43.280589581
         4            2.000000         0.000893395       188.074380901       -17.219506448       -17.218319682        42.889635761
         5            2.500000         0.000798180       168.030031943       -17.219440235       -17.218318705        32.271840814
         6            3.000000         0.000873954       183.981621238       -17.219333865       -17.218317400        30.919342371
         7            3.500000         0.000723313       152.269243208       -17.219210859       -17.218316174        31.016190257
         8            4.000000         0.000677746       142.676754338       -17.219090546       -17.218315425        34.770498056
         9            4.500000         0.000531671       111.925496084       -17.218990586       -17.218315354        41.510315054
        10            5.000000         0.000391851        82.491008385       -17.218897271       -17.218315728        29.287810965
        11            5.500000         0.000324690        68.352566712       -17.218821520       -17.218316035        29.122045220
        12            6.000000         0.000286709        60.357038120       -17.218760932       -17.218316039        32.345754114
        13            6.500000         0.000243134        51.183639865       -17.218701611       -17.218315437        30.774929634
        14            7.000000         0.000154612        32.548404456       -17.218658350       -17.218314343        28.641640227
        15            7.500000         0.000163878        34.498907885       -17.218656437       -17.218313618        28.421926281
        16            8.000000         0.000196549        41.376781715       -17.218708276       -17.218313579        36.850752702
        17            8.500000         0.000262834        55.330857640       -17.218803125       -17.218314285        44.027689433
        18            9.000000         0.000402108        84.650334746       -17.218938460       -17.218315676        44.185713269
        19            9.500000         0.000588030       123.790022213       -17.219102958       -17.218317414        32.965447081
        20           10.000000         0.000783570       164.954388848       -17.219257836       -17.218318879        30.584004501
        21           10.500000         0.000791139       166.547794987       -17.219377111       -17.218319697        40.351692253
        22           11.000000         0.000777569       163.691078658       -17.219442195       -17.218319807        34.875192689
        23           11.500000         0.000929901       195.759516797       -17.219467472       -17.218319420        43.143433611
        24           12.000000         0.001024917       215.761803770       -17.219456120       -17.218318694        44.391063352
        25           12.500000         0.000961551       202.422378500       -17.219418361       -17.218317975        41.821094538
        26           13.000000         0.000743415       156.501129053       -17.219368272       -17.218317626        34.658949726
        27           13.500000         0.000629932       132.610980036       -17.219319060       -17.218317809        29.187449198
        28           14.000000         0.000635307       133.742461044       -17.219265565       -17.218318333        28.621717001
        29           14.500000         0.000517369       108.914592335       -17.219200510       -17.218318732        29.008974138
        30           15.000000         0.000467530        98.422804773       -17.219111032       -17.218318553        35.334687737
        31           15.500000         0.000286074        60.223337678       -17.219010777       -17.218317734        29.113612791
        32           16.000000         0.000152612        32.127257640       -17.218939549       -17.218317046        28.905239294
        33           16.500000         0.000170520        35.897311299       -17.218876791       -17.218316511        31.408045496
        34           17.000000         0.000133799        28.166788688       -17.218844109       -17.218316169        51.985927922
        35           17.500000         0.000112235        23.627363384       -17.218848183       -17.218316124        37.521620759
        36           18.000000         0.000170664        35.927486854       -17.218890145       -17.218316348        43.160005389
        37           18.500000         0.000189130        39.814994620       -17.218961336       -17.218316863        42.465587483
        38           19.000000         0.000285319        60.064409455       -17.219048040       -17.218317779        42.370379904
        39           19.500000         0.000500621       105.388973684       -17.219168702       -17.218319097        41.046164531
        40           20.000000         0.000567169       119.398437429       -17.219272192       -17.218319914        41.222146685
        41           20.500000         0.000729201       153.508891161       -17.219349975       -17.218320047        34.180690199
        42           21.000000         0.000749846       157.854914775       -17.219400035       -17.218319537        41.340332524
        43           21.500000         0.000978827       206.059075798       -17.219422202       -17.218318681        41.767658399
        44           22.000000         0.001110322       233.740967195       -17.219420564       -17.218317860        43.705190457
        45           22.500000         0.001159990       244.196990556       -17.219397007       -17.218317390        43.895400199
        46           23.000000         0.001262027       265.677435844       -17.219347139       -17.218317299        43.905677351
        47           23.500000         0.001086879       228.805858377       -17.219270911       -17.218317436        43.987015916
        48           24.000000         0.001129761       237.833246107       -17.219167765       -17.218317601        44.113352942
        49           24.500000         0.000991498       208.726540653       -17.219021199       -17.218317456        44.561013249
        50           25.000000         0.000796485       167.673273129       -17.218839985       -17.218316683        39.394959931
        51           25.500000         0.000655751       138.046296234       -17.218605329       -17.218314885        44.147860583
        52           26.000000         0.000610680       128.558130686       -17.218338839       -17.218311879        44.306072116
        53           26.500000         0.000326224        68.675533777       -17.218044044       -17.218307634        44.028613081
        54           27.000000         0.000190861        40.179408261       -17.217830010       -17.218304216        43.279750705
        55           27.500000         0.000120147        25.292933721       -17.217747811       -17.218303318        28.875974012
        56           28.000000         0.000221442        46.617216924       -17.217803668       -17.218305256        43.773645543
        57           28.500000         0.000330739        69.626018839       -17.217969228       -17.218308834        43.877836222
        58           29.000000         0.000502423       105.768195720       -17.218175812       -17.218312005        31.165982687
        59           29.500000         0.000718337       151.221738560       -17.218388447       -17.218313797        42.718952279
        60           30.000000         0.000867027       182.523514592       -17.218572568       -17.218313994        35.445975364
        61           30.500000         0.001017508       214.202115334       -17.218734550       -17.218313191        37.262949021
        62           31.000000         0.001130556       238.000584641       -17.218874216       -17.218312420        41.217245012
        63           31.500000         0.001128642       237.597691359       -17.219021539       -17.218312327        44.763410010
        64           32.000000         0.001269502       267.251098518       -17.219166245       -17.218313215        43.978301097
        65           32.500000         0.001444469       304.084509509       -17.219315565       -17.218315089        44.886852953
        66           33.000000         0.001699175       357.704240096       -17.219443033       -17.218317507        44.587789468
        67           33.500000         0.001956966       411.973582435       -17.219495762       -17.218319492        38.798986916
        68           34.000000         0.002179962       458.917773708       -17.219424837       -17.218320020        34.089953331
        69           34.500000         0.001651333       347.632713754       -17.219219138       -17.218318026        44.425624646
        70           35.000000         0.001239626       260.961670021       -17.218929284       -17.218314100        34.266847734
        71           35.500000         0.000980534       206.418608709       -17.218594378       -17.218309335        37.829277769
        72           36.000000         0.000653730       137.620840619       -17.218317644       -17.218306234        51.695564552
        73           36.500000         0.000420016        88.420252185       -17.218146149       -17.218306156        40.178393603
        74           37.000000         0.000327407        68.924452280       -17.218081053       -17.218308615        44.045027817
        75           37.500000         0.000416079        87.591518998       -17.218079795       -17.218311805        44.573512840
        76           38.000000         0.000342630        72.129222572       -17.218095810       -17.218313608        44.217573489
        77           38.500000         0.000382318        80.484258280       -17.218100128       -17.218313169        37.101406987
        78           39.000000         0.000436719        91.936500166       -17.218083889       -17.218310410        34.327427559
        79           39.500000         0.000466769        98.262503728       -17.218077751       -17.218306868        40.127667302
        80           40.000000         0.000424287        89.319341816       -17.218136168       -17.218304592        44.349444113
        81           40.500000         0.000665522       140.103240988       -17.218298866       -17.218304570        43.232358588
        82           41.000000         0.000979714       206.245993062       -17.218566928       -17.218307078        28.326759377
        83           41.500000         0.001397993       294.300503670       -17.218908382       -17.218311616        33.511184418
        84           42.000000         0.001860152       391.592500705       -17.219248589       -17.218316810        44.242692482
        85           42.500000         0.002219026       467.141382209       -17.219495769       -17.218320621        37.076759057
        86           43.000000         0.002145550       451.673631086       -17.219567377       -17.218321008        38.055150267
        87           43.500000         0.002206495       464.503364320       -17.219466619       -17.218317734        30.010418829
        88           44.000000         0.002051429       431.859537475       -17.219236261       -17.218312161        35.650932339
        89           44.500000         0.001596950       336.184158941       -17.218962815       -17.218307255        33.783453233
        90           45.000000         0.001336759       281.409809415       -17.218722644       -17.218305569        34.575388651
        91           45.500000         0.001085651       228.547464023       -17.218565046       -17.218307427        32.439004782
        92           46.000000         0.000965431       203.239089955       -17.218449292       -17.218310922        43.042139816
        93           46.500000         0.000870366       183.226274411       -17.218321283       -17.218313215        43.762734048
        94           47.000000         0.000816511       171.888911359       -17.218133232       -17.218312487        44.108025102
        95           47.500000         0.000620575       130.641233424       -17.217873710       -17.218308480        37.016789993
        96           48.000000         0.000254106        53.493445791       -17.217610035       -17.218303125        44.631138492
        97           48.500000         0.000106615        22.444234769       -17.217465495       -17.218299514        36.155629115
        98           49.000000         0.000094161        19.822388655       -17.217474151       -17.218298358        23.923767458
        99           49.500000         0.000299102        62.965960077       -17.217657614       -17.218300053        30.688081037
       100           50.000000         0.000571613       120.333973859       -17.217975746       -17.218304125        28.581956226
       101           50.500000         0.001066323       224.478581397       -17.218381614       -17.218309723        30.781164261
       102           51.000000         0.001566710       329.818273566       -17.218790581       -17.218315210        31.167598013
       103           51.500000         0.001965154       413.697171044       -17.219099952       -17.218318360        39.568245440
       104           52.000000         0.002213269       465.929536788       -17.219258689       -17.218317657        43.946181755
       105           52.500000         0.001841407       387.646403100       -17.219270707       -17.218313634        30.753695998
       106           53.000000         0.002017073       424.627056090       -17.219213066       -17.218308763        40.600732379
       107           53.500000         0.001923207       404.866751688       -17.219146160       -17.218305901        44.167443968
       108           54.000000         0.001751970       368.818403261       -17.219120015       -17.218307310        37.974519134
       109           54.500000         0.001749118       368.218022136       -17.219116876       -17.218311855        32.756667728
       110           55.000000         0.001783943       375.549293901       -17.219066447       -17.218316293        28.775840889
       111           55.500000         0.001634785       344.149181381       -17.218898214       -17.218317470        40.309159965
       112           56.000000         0.001462998       307.985039758       -17.218587109       -17.218314389        43.075209353
       113           56.500000         0.000916416       192.920597939       -17.218184732       -17.218308460        28.337914481
       114           57.000000         0.000569650       119.920693602       -17.217782338       -17.218302151        44.265460963
       115           57.500000         0.000158911        33.453458295       -17.217480664       -17.218297740        29.038534423
       116           58.000000         0.000038451         8.094533307       -17.217405553       -17.218297340        37.912768441
       117           58.500000         0.000116905        24.610504641       -17.217509731       -17.218300146        32.743865655
       118           59.000000         0.000320562        67.483663069       -17.217753375       -17.218305440        29.252638779
       119           59.500000         0.000588202       123.826124850       -17.218049230       -17.218311143        42.566020454
       120           60.000000         0.000586655       123.500472266       -17.218295362       -17.218314686        44.278313325
       121           60.500000         0.000829730       174.671881378       -17.218477332       -17.218315465        28.394479924
       122           61.000000         0.000972326       204.690517347       -17.218615131       -17.218313548        37.260388753
       123           61.500000         0.001114731       234.669274890       -17.218725351       -17.218310230        37.756537814
       124           62.000000         0.001094168       230.340252390       -17.218860861       -17.218308103        37.761668167
       125           62.500000         0.001046230       220.248613840       -17.219040064       -17.218309275        36.970437395
       126           63.000000         0.001272544       267.891355741       -17.219270928       -17.218313526        29.391349679
       127           63.500000         0.001622031       341.464115509       -17.219495045       -17.218318814        30.871820265
       128           64.000000         0.001669680       351.495148222       -17.219618187       -17.218322147        34.978649488
       129           64.500000         0.001639003       345.037026590       -17.219591928       -17.218322143        32.015885548
       130           65.000000         0.001626160       342.333420800       -17.219412676       -17.218319035        26.198265878
       131           65.500000         0.001380557       290.629971453       -17.219116093       -17.218314111        43.391618463
       132           66.000000         0.000851048       179.159537224       -17.218816061       -17.218309824        33.493644888
       133           66.500000         0.000645496       135.887482466       -17.218537983       -17.218306902        43.900526816
       134           67.000000         0.000479679       100.980275419       -17.218348331       -17.218306259        43.586829549
       135           67.500000         0.000398002        83.785965926       -17.218257507       -17.218307761        39.786815619
       136           68.000000         0.000374562        78.851382753       -17.218240491       -17.218310595        32.849695522
       137           68.500000         0.000455920        95.978688412       -17.218255341       -17.218313342        37.025462951
       138           69.000000         0.000446295        93.952353114       -17.218246016       -17.218314709        44.401864742
       139           69.500000         0.000371584        78.224468175       -17.218186542       -17.218312744        51.081378368
       140           70.000000         0.000469531        98.843937411       -17.218107418       -17.218308066        38.399503621
       141           70.500000         0.000567505       119.469077273       -17.218038886       -17.218300853        30.720446899
       142           71.000000         0.000577128       121.494983665       -17.218082631       -17.218295904        33.326145210
       143           71.500000         0.000692263       145.732805351       -17.218305141       -17.218297376        43.923863789
       144           72.000000         0.001077906       226.916948227       -17.218682307       -17.218304844        39.182737073
       145           72.500000         0.001533454       322.817345258       -17.219113153       -17.218314500        28.823103002
       146           73.000000         0.001704675       358.862097980       -17.219456049       -17.218321486        37.716258441
       147           73.500000         0.001804850       379.950580837       -17.219594579       -17.218322893        36.521840348
       148           74.000000         0.001689679       355.705151835       -17.219519586       -17.218319169        36.828831079
       149           74.500000         0.001467756       308.986777176       -17.219290766       -17.218312724        39.987814266
       150           75.000000         0.001265952       266.503626189       -17.219006028       -17.218306261        35.100756378
       151           75.500000         0.001048184       220.659957351       -17.218741257       -17.218301641        31.222707170
       152           76.000000         0.000887668       186.868620322       -17.218596240       -17.218300782        29.196158911
       153           76.500000         0.000718101       151.172068958       -17.218583536       -17.218303673        37.790450154
       154           77.000000         0.000988117       208.014884609       -17.218655199       -17.218309324        44.758359363
       155           77.500000         0.000935447       196.926941845       -17.218722134       -17.218315472        44.138908786
       156           78.000000         0.000944634       198.860934309       -17.218687953       -17.218318739        29.179006126
       157           78.500000         0.000721235       151.831765396       -17.218506607       -17.218316625        24.306140107
       158           79.000000         0.000431600        90.858957002       -17.218230895       -17.218309412        30.884092243
       159           79.500000         0.000219654        46.240806508       -17.217933575       -17.218299445        37.096845314
       160           80.000000         0.000079681        16.774100731       -17.217762789       -17.218292109        51.648084945
       161           80.500000         0.000293192        61.721672689       -17.217836502       -17.218292292        39.696814708
       162           81.000000         0.000829593       174.642986299       -17.218235688       -17.218301969        48.674477158
       163           81.500000         0.001282026       269.887615958       -17.218744154       -17.218313533        41.032518324
       164           82.000000         0.001612637       339.486649536       -17.219125957       -17.218319854        36.758977045
       165           82.500000         0.001762618       371.060076216       -17.219295794       -17.218319704        42.745106928
       166           83.000000         0.001907559       401.572474168       -17.219263879       -17.218314728        32.089348796
       167           83.500000         0.001655896       348.593382832       -17.219077684       -17.218307110        35.927898933
       168           84.000000         0.001446019       304.410807316       -17.218874912       -17.218301075        52.002850409
       169           84.500000         0.001397358       294.166856277       -17.218729005       -17.218297848        44.433835786
       170           85.000000         0.001378009       290.093527039       -17.218696624       -17.218298567        42.086400585
       171           85.500000         0.001441694       303.500353135       -17.218767037       -17.218302956        44.270796400
       172           86.000000         0.001472643       310.015533675       -17.218873214       -17.218309344        43.431054640
       173           86.500000         0.001648083       346.948619913       -17.218920692       -17.218315645        33.549361444
       174           87.000000         0.001816676       382.440114703       -17.218776497       -17.218318146        35.979708251
       175           87.500000         0.001406119       296.011129528       -17.218392958       -17.218312991        35.155450514
       176           88.000000         0.000878551       184.949501463       -17.217821146       -17.218300369        38.610073360
       177           88.500000         0.000445761        93.839987883       -17.217270842       -17.218286094        34.452144964
       178           89.000000         0.000085294        17.955757510       -17.216941214       -17.218277853        36.603850496
       179           89.500000         0.000136341        28.701928968       -17.216995699       -17.218281281        35.371436260
       180           90.000000         0.000606114       127.597010709       -17.217361574       -17.218293251        30.971451835
       181           90.500000         0.001059809       223.107115205       -17.217889928       -17.218306959        44.706273851
       182           91.000000         0.001545973       325.452714221       -17.218303125       -17.218314005        44.578015798
       183           91.500000         0.001642398       345.751858645       -17.218506023       -17.218312801        40.808363672
       184           92.000000         0.001556694       327.709684443       -17.218483190       -17.218305898        36.352175384
       185           92.500000         0.001585437       333.760606383       -17.218359789       -17.218297744        40.996378392
       186           93.000000         0.001640586       345.370325882       -17.218244068       -17.218290469        39.940133483
       187           93.500000         0.001763853       371.319968594       -17.218239105       -17.218286839        40.351369421
       188           94.000000         0.001854195       390.338489090       -17.218399642       -17.218288382        30.535516516
       189           94.500000         0.002064116       434.530395305       -17.218700987       -17.218295074        40.370712252
       190           95.000000         0.002702017       568.818913936       -17.219039777       -17.218305195        44.386183272
       191           95.500000         0.002661310       560.249550555       -17.219259141       -17.218315178        44.208849107
       192           96.000000         0.003042690       640.536181930       -17.219189331       -17.218319493        44.507325610
       193           96.500000         0.002591759       545.607916558       -17.218746581       -17.218313313        34.456960421
       194           97.000000         0.002043719       430.236339171       -17.218012563       -17.218296709        42.924294491
       195           97.500000         0.001385739       291.720737718       -17.217215882       -17.218277206        47.365464956
       196           98.000000         0.000909340       191.431063626       -17.216670006       -17.218267246        50.370957449
       197           98.500000         0.000809734       170.462221463       -17.216509947       -17.218272481        48.688413812
       198           99.000000         0.001017418       214.183244133       -17.216670446       -17.218287236        34.754124881
       199           99.500000         0.001221403       257.125440491       -17.216923300       -17.218300069        34.613461370
       200          100.000000         0.001246949       262.503248211       -17.217058842       -17.218304132        33.919084975
       201          100.500000         0.001247574       262.634769846       -17.217029860       -17.218300365        38.648953085
       202          101.000000         0.001110463       233.770680576       -17.216880430       -17.218292225        31.382742426
       203          101.500000         0.000850093       178.958508941       -17.216742710       -17.218284226        33.045919851
       204          102.000000         0.000783524       164.944704622       -17.216742933       -17.218278993        31.185434211
       205          102.500000         0.001253833       263.952519811       -17.216962851       -17.218278235        37.575138667
       206          103.000000         0.001763464       371.238180616       -17.217442209       -17.218282679        37.484833641
       207          103.500000         0.002137044       449.882926399       -17.218040274       -17.218291106        38.980557586
       208          104.000000         0.002724709       573.596020720       -17.218642512       -17.218301374        44.234430947
       209          104.500000         0.003510298       738.975403368       -17.219122334       -17.218310169        43.938375103
       210          105.000000         0.003854448       811.424688166       -17.219327381       -17.218312864        43.787353554
       211          105.500000         0.003708034       780.602014827       -17.219186920       -17.218306831        44.542157687
       212          106.000000         0.003659793       770.446623706       -17.218798130       -17.218295282        39.941147210
       213          106.500000         0.002996304       630.771180435       -17.218342577       -17.218285381        35.611446562
       214          107.000000         0.002673162       562.744451356       -17.217942021       -17.218282312        44.358080291
       215          107.500000         0.002509652       528.323058878       -17.217661039       -17.218286139        42.712684736
       216          108.000000         0.002136028       449.668936768       -17.217445654       -17.218292062        44.266094213
       217          108.500000         0.002111806       444.569919900       -17.217207977       -17.218295437        44.453710938
       218          109.000000         0.002011100       423.369629397       -17.216845581       -17.218293713        37.779214169
       219          109.500000         0.001289151       271.387406344       -17.216388064       -17.218287883        38.485366981
       220          110.000000         0.000599689       126.244417680       -17.215964458       -17.218281082        38.640947816
       221          110.500000         0.000346353        72.913052207       -17.215727910       -17.218276268        31.634558634
       222          111.000000         0.000359664        75.715144116       -17.215725665       -17.218274174        44.397104568
       223          111.500000         0.000795714       167.510777944       -17.215998374       -17.218275454        39.688799862
       224          112.000000         0.001241715       261.401338186       -17.216497880       -17.218280456        44.332072330
       225          112.500000         0.001887146       397.275299033       -17.217128705       -17.218288343        44.705142951
       226          113.000000         0.002768662       582.848942940       -17.217827958       -17.218297808        36.057876046
       227          113.500000         0.003266156       687.579407089       -17.218400974       -17.218304419        33.260282538