#     Step Nr.          Time[fs]        Kin.[a.u.]          Temp[K]            Pot.[a.u.]        Cons Qty[a.u.]        UsedTime[s]
         0            0.000000         0.000950045       200.000000000       -17.219267542       -17.218317498         0.000000000
         1            0.500000         0.001027475       216.300410329       -17.219416467       -17.218319376       122.600093316
         2            1.000000         0.000970495       204.305208722       -17.219505256       -17.218320282        40.902436120
         3            1.500000         0.001019175       214.553143358       -17.219533603       -17.218320307        40.638027202
         4            2.000000         0.000893395       188.074380901       -17.219506448       -17.218319682        40.447579519
         5            2.500000         0.000798180       168.030031943       -17.219440235       -17.218318705        40.533404101
         6            3.000000         0.000873954       183.981621238       -17.219333865       -17.218317400        40.603060166
         7            3.500000         0.000723313       152.269243208       -17.219210859       -17.218316174        40.449636979
         8            4.000000         0.000677746       142.676754338       -17.219090546       -17.218315425        40.537936324
         9            4.500000         0.000531671       111.925496084       -17.218990586       -17.218315354        40.313145223
        10            5.000000         0.000391851        82.491008385       -17.218897271       -17.218315728        40.345588001
        11            5.500000         0.000324690        68.352566711       -17.218821520       -17.218316035        40.240755739
        12            6.000000         0.000286709        60.357038120       -17.218760932       -17.218316039        40.772619940
        13            6.500000         0.000243134        51.183639866       -17.218701611       -17.218315437        40.548521047
        14            7.000000         0.000154612        32.548404457       -17.218658350       -17.218314343        40.749961683
        15            7.500000         0.000163878        34.498907886       -17.218656437       -17.218313618        40.449325789
        16            8.000000         0.000196549        41.376781716       -17.218708276       -17.218313579        40.826748759
        17            8.500000         0.000262834        55.330857640       -17.218803125       -17.218314285        40.866562787
        18            9.000000         0.000402108        84.650334746       -17.218938460       -17.218315676        40.519989854
        19            9.500000         0.000588030       123.790022213       -17.219102958       -17.218317414        40.511294457
        20           10.000000         0.000783570       164.954388848       -17.219257836       -17.218318879        40.928520793
        21           10.500000         0.000791139       166.547794988       -17.219377111       -17.218319697        40.515989812
        22           11.000000         0.000777569       163.691078659       -17.219442195       -17.218319807        40.117754987
        23           11.500000         0.000929901       195.759516798       -17.219467472       -17.218319420        40.662207614
        24           12.000000         0.001024917       215.761803771       -17.219456120       -17.218318694        41.007936684
        25           12.500000         0.000961551       202.422378500       -17.219418361       -17.218317975        40.636854734
        26           13.000000         0.000743415       156.501129052       -17.219368272       -17.218317626        40.447835639
        27           13.500000         0.000629932       132.610980035       -17.219319060       -17.218317809        40.318271829
        28           14.000000         0.000635307       133.742461042       -17.219265565       -17.218318333        40.406883773
        29           14.500000         0.000517369       108.914592333       -17.219200510       -17.218318732        40.669662183
        30           15.000000         0.000467530        98.422804771       -17.219111032       -17.218318553        40.220092216
        31           15.500000         0.000286074        60.223337677       -17.219010777       -17.218317734        40.432188064
        32           16.000000         0.000152612        32.127257640       -17.218939549       -17.218317046        40.623302997
        33           16.500000         0.000170520        35.897311299       -17.218876791       -17.218316511        40.429515451
        34           17.000000         0.000133799        28.166788687       -17.218844109       -17.218316169        47.353961256
        35           17.500000         0.000112235        23.627363383       -17.218848183       -17.218316124        36.147263020
        36           18.000000         0.000170664        35.927486854       -17.218890145       -17.218316348        45.337429107
        37           18.500000         0.000189130        39.814994619       -17.218961336       -17.218316863        40.754953344
        38           19.000000         0.000285319        60.064409455       -17.219048040       -17.218317779        40.505283318
        39           19.500000         0.000500621       105.388973684       -17.219168702       -17.218319097        40.673782837
        40           20.000000         0.000567169       119.398437430       -17.219272192       -17.218319914        40.380054587
        41           20.500000         0.000729201       153.508891162       -17.219349975       -17.218320047        36.905892068
        42           21.000000         0.000749846       157.854914776       -17.219400035       -17.218319537        44.952846895
        43           21.500000         0.000978827       206.059075798       -17.219422202       -17.218318681        40.845415781
        44           22.000000         0.001110322       233.740967193       -17.219420564       -17.218317860        40.842866691
        45           22.500000         0.001159990       244.196990554       -17.219397007       -17.218317390        40.450077919
        46           23.000000         0.001262027       265.677435842       -17.219347139       -17.218317299        40.164332558
        47           23.500000         0.001086879       228.805858375       -17.219270911       -17.218317436        40.594512888
        48           24.000000         0.001129761       237.833246106       -17.219167765       -17.218317601        40.464523806
        49           24.500000         0.000991498       208.726540652       -17.219021199       -17.218317456        40.233625149
        50           25.000000         0.000796485       167.673273128       -17.218839985       -17.218316683        40.510813169
        51           25.500000         0.000655751       138.046296234       -17.218605329       -17.218314885        40.224117322
        52           26.000000         0.000610680       128.558130685       -17.218338839       -17.218311879        40.916671619
        53           26.500000         0.000326224        68.675533777       -17.218044044       -17.218307634        41.003408367
        54           27.000000         0.000190861        40.179408260       -17.217830010       -17.218304216        46.796066507
        55           27.500000         0.000120147        25.292933720       -17.217747811       -17.218303318        40.243814121
        56           28.000000         0.000221442        46.617216924       -17.217803668       -17.218305256        40.318616166
        57           28.500000         0.000330739        69.626018839       -17.217969228       -17.218308834        40.781462313
        58           29.000000         0.000502423       105.768195721       -17.218175812       -17.218312005        40.561567231
        59           29.500000         0.000718337       151.221738561       -17.218388447       -17.218313797        40.647014662
        60           30.000000         0.000867027       182.523514593       -17.218572568       -17.218313994        40.208062348
        61           30.500000         0.001017508       214.202115336       -17.218734550       -17.218313191        33.756286553
        62           31.000000         0.001130556       238.000584642       -17.218874216       -17.218312420        40.196762805
        63           31.500000         0.001128642       237.597691359       -17.219021539       -17.218312327        40.470992792
        64           32.000000         0.001269502       267.251098518       -17.219166245       -17.218313215        40.620707602
        65           32.500000         0.001444469       304.084509510       -17.219315565       -17.218315089        40.364959326
        66           33.000000         0.001699175       357.704240097       -17.219443033       -17.218317507        40.109879575
        67           33.500000         0.001956966       411.973582436       -17.219495762       -17.218319492        40.649523395
        68           34.000000         0.002179962       458.917773710       -17.219424837       -17.218320020        40.623678697
        69           34.500000         0.001651333       347.632713755       -17.219219138       -17.218318026        40.515903440
        70           35.000000         0.001239626       260.961670023       -17.218929284       -17.218314100        41.026461566
        71           35.500000         0.000980534       206.418608710       -17.218594378       -17.218309335        40.503291986
        72           36.000000         0.000653730       137.620840619       -17.218317644       -17.218306234        47.504257295
        73           36.500000         0.000420016        88.420252184       -17.218146149       -17.218306156        40.755448707
        74           37.000000         0.000327407        68.924452279       -17.218081053       -17.218308615        40.472386643
        75           37.500000         0.000416079        87.591518998       -17.218079795       -17.218311805        40.462779318
        76           38.000000         0.000342630        72.129222573       -17.218095810       -17.218313608        40.896708202
        77           38.500000         0.000382318        80.484258281       -17.218100128       -17.218313169        40.573670947
        78           39.000000         0.000436719        91.936500167       -17.218083889       -17.218310410        40.396187180
        79           39.500000         0.000466769        98.262503728       -17.218077751       -17.218306868        40.759712635
        80           40.000000         0.000424287        89.319341816       -17.218136168       -17.218304592        40.903297452
        81           40.500000         0.000665522       140.103240988       -17.218298866       -17.218304570        40.225623680
        82           41.000000         0.000979714       206.245993062       -17.218566928       -17.218307078        48.882941980
        83           41.500000         0.001397993       294.300503670       -17.218908382       -17.218311616        51.675709480
        84           42.000000         0.001860152       391.592500706       -17.219248589       -17.218316810        75.291819627
        85           42.500000         0.002219026       467.141382210       -17.219495769       -17.218320621        62.181710390
        86           43.000000         0.002145550       451.673631088       -17.219567377       -17.218321008        55.909371898
        87           43.500000         0.002206495       464.503364322       -17.219466619       -17.218317734        50.189726287
        88           44.000000         0.002051429       431.859537477       -17.219236261       -17.218312161        68.299405316
        89           44.500000         0.001596950       336.184158942       -17.218962815       -17.218307255        57.270678225
        90           45.000000         0.001336759       281.409809415       -17.218722644       -17.218305569        75.897877989
        91           45.500000         0.001085651       228.547464023       -17.218565046       -17.218307427        59.617441399
        92           46.000000         0.000965431       203.239089955       -17.218449292       -17.218310922        49.471802443
        93           46.500000         0.000870366       183.226274411       -17.218321283       -17.218313215        61.183954651
        94           47.000000         0.000816511       171.888911359       -17.218133232       -17.218312487        46.658621413
        95           47.500000         0.000620575       130.641233424       -17.217873710       -17.218308480        40.136137938
        96           48.000000         0.000254106        53.493445791       -17.217610035       -17.218303125        70.779747102
        97           48.500000         0.000106615        22.444234769       -17.217465495       -17.218299514       115.410371926
        98           49.000000         0.000094161        19.822388654       -17.217474151       -17.218298358        55.290847272
        99           49.500000         0.000299102        62.965960076       -17.217657614       -17.218300053        84.624649232
       100           50.000000         0.000571613       120.333973858       -17.217975746       -17.218304125        58.229209079
       101           50.500000         0.001066323       224.478581396       -17.218381614       -17.218309723        75.407922281
       102           51.000000         0.001566710       329.818273566       -17.218790581       -17.218315210        83.016453415
       103           51.500000         0.001965154       413.697171044       -17.219099952       -17.218318360        57.144956850
       104           52.000000         0.002213269       465.929536789       -17.219258689       -17.218317657        58.433298571
       105           52.500000         0.001841407       387.646403101       -17.219270707       -17.218313634        53.347250942
       106           53.000000         0.002017073       424.627056089       -17.219213066       -17.218308763        75.953524634
       107           53.500000         0.001923207       404.866751688       -17.219146160       -17.218305901        72.349969676
       108           54.000000         0.001751970       368.818403260       -17.219120015       -17.218307310        86.012957496
       109           54.500000         0.001749118       368.218022134       -17.219116876       -17.218311855        64.278690391
       110           55.000000         0.001783943       375.549293899       -17.219066447       -17.218316293        70.156860871
       111           55.500000         0.001634785       344.149181379       -17.218898214       -17.218317470        77.649027740
       112           56.000000         0.001462998       307.985039756       -17.218587109       -17.218314389        70.747031853
       113           56.500000         0.000916416       192.920597938       -17.218184732       -17.218308460        79.207673551
       114           57.000000         0.000569650       119.920693602       -17.217782338       -17.218302151        72.051710073
       115           57.500000         0.000158911        33.453458294       -17.217480664       -17.218297740        58.709309627
       116           58.000000         0.000038451         8.094533307       -17.217405553       -17.218297340        78.810990343
       117           58.500000         0.000116905        24.610504641       -17.217509731       -17.218300146        60.425318118
       118           59.000000         0.000320562        67.483663069       -17.217753375       -17.218305440        76.870631491
       119           59.500000         0.000588202       123.826124849       -17.218049230       -17.218311143        59.036818436
