#     Step Nr.          Time[fs]        Kin.[a.u.]          Temp[K]            Pot.[a.u.]        Cons Qty[a.u.]        UsedTime[s]
         0            0.000000         0.000950045       200.000000000       -17.219267542       -17.218317498         0.000000000
         1            0.500000         0.001027475       216.300410329       -17.219416467       -17.218319376       122.600093316
         2            1.000000         0.000970495       204.305208722       -17.219505256       -17.218320282        40.902436120
         3            1.500000         0.001019175       214.553143358       -17.219533603       -17.218320307        40.638027202
         4            2.000000         0.000893395       188.074380901       -17.219506448       -17.218319682        40.447579519
         5            2.500000         0.000798180       168.030031943       -17.219440235       -17.218318705        40.533404101
         6            3.000000         0.000873954       183.981621238       -17.219333865       -17.218317400        40.603060166
         7            3.500000         0.000723313       152.269243208       -17.219210859       -17.218316174        40.449636979
         8            4.000000         0.000677746       142.676754338       -17.219090546       -17.218315425        40.537936324
         9            4.500000         0.000531671       111.925496084       -17.218990586       -17.218315354        40.313145223
        10            5.000000         0.000391851        82.491008385       -17.218897271       -17.218315728        40.345588001
        11            5.500000         0.000324690        68.352566711       -17.218821520       -17.218316035        40.240755739
        12            6.000000         0.000286709        60.357038120       -17.218760932       -17.218316039        40.772619940
        13            6.500000         0.000243134        51.183639866       -17.218701611       -17.218315437        40.548521047
        14            7.000000         0.000154612        32.548404457       -17.218658350       -17.218314343        40.749961683
        15            7.500000         0.000163878        34.498907886       -17.218656437       -17.218313618        40.449325789
        16            8.000000         0.000196549        41.376781716       -17.218708276       -17.218313579        40.826748759
        17            8.500000         0.000262834        55.330857640       -17.218803125       -17.218314285        40.866562787
        18            9.000000         0.000402108        84.650334746       -17.218938460       -17.218315676        40.519989854
        19            9.500000         0.000588030       123.790022213       -17.219102958       -17.218317414        40.511294457
        20           10.000000         0.000783570       164.954388848       -17.219257836       -17.218318879        40.928520793
        21           10.500000         0.000791139       166.547794988       -17.219377111       -17.218319697        40.515989812
        22           11.000000         0.000777569       163.691078659       -17.219442195       -17.218319807        40.117754987
        23           11.500000         0.000929901       195.759516798       -17.219467472       -17.218319420        40.662207614
        24           12.000000         0.001024917       215.761803771       -17.219456120       -17.218318694        41.007936684
        25           12.500000         0.000961551       202.422378500       -17.219418361       -17.218317975        40.636854734
        26           13.000000         0.000743415       156.501129052       -17.219368272       -17.218317626        40.447835639
        27           13.500000         0.000629932       132.610980035       -17.219319060       -17.218317809        40.318271829
        28           14.000000         0.000635307       133.742461042       -17.219265565       -17.218318333        40.406883773
        29           14.500000         0.000517369       108.914592333       -17.219200510       -17.218318732        40.669662183
        30           15.000000         0.000467530        98.422804771       -17.219111032       -17.218318553        40.220092216
        31           15.500000         0.000286074        60.223337677       -17.219010777       -17.218317734        40.432188064
        32           16.000000         0.000152612        32.127257640       -17.218939549       -17.218317046        40.623302997
        33           16.500000         0.000170520        35.897311299       -17.218876791       -17.218316511        40.429515451
        34           17.000000         0.000133799        28.166788687       -17.218844109       -17.218316169        47.353961256
        35           17.500000         0.000112235        23.627363383       -17.218848183       -17.218316124        36.147263020
        36           18.000000         0.000170664        35.927486854       -17.218890145       -17.218316348        45.337429107
        37           18.500000         0.000189130        39.814994619       -17.218961336       -17.218316863        40.754953344
        38           19.000000         0.000285319        60.064409455       -17.219048040       -17.218317779        40.505283318
        39           19.500000         0.000500621       105.388973684       -17.219168702       -17.218319097        40.673782837
        40           20.000000         0.000567169       119.398437430       -17.219272192       -17.218319914        40.380054587
        41           20.500000         0.000729201       153.508891162       -17.219349975       -17.218320047        36.905892068
        42           21.000000         0.000749846       157.854914776       -17.219400035       -17.218319537        44.952846895
        43           21.500000         0.000978827       206.059075798       -17.219422202       -17.218318681        40.845415781
        44           22.000000         0.001110322       233.740967193       -17.219420564       -17.218317860        40.842866691
        45           22.500000         0.001159990       244.196990554       -17.219397007       -17.218317390        40.450077919
        46           23.000000         0.001262027       265.677435842       -17.219347139       -17.218317299        40.164332558
        47           23.500000         0.001086879       228.805858375       -17.219270911       -17.218317436        40.594512888
        48           24.000000         0.001129761       237.833246106       -17.219167765       -17.218317601        40.464523806
        49           24.500000         0.000991498       208.726540652       -17.219021199       -17.218317456        40.233625149
        50           25.000000         0.000796485       167.673273128       -17.218839985       -17.218316683        40.510813169
        51           25.500000         0.000655751       138.046296234       -17.218605329       -17.218314885        40.224117322
        52           26.000000         0.000610680       128.558130685       -17.218338839       -17.218311879        40.916671619
        53           26.500000         0.000326224        68.675533777       -17.218044044       -17.218307634        41.003408367
        54           27.000000         0.000190861        40.179408260       -17.217830010       -17.218304216        46.796066507
        55           27.500000         0.000120147        25.292933720       -17.217747811       -17.218303318        40.243814121
        56           28.000000         0.000221442        46.617216924       -17.217803668       -17.218305256        40.318616166
        57           28.500000         0.000330739        69.626018839       -17.217969228       -17.218308834        40.781462313
        58           29.000000         0.000502423       105.768195721       -17.218175812       -17.218312005        40.561567231
        59           29.500000         0.000718337       151.221738561       -17.218388447       -17.218313797        40.647014662
        60           30.000000         0.000867027       182.523514593       -17.218572568       -17.218313994        40.208062348
        61           30.500000         0.001017508       214.202115336       -17.218734550       -17.218313191        33.756286553
        62           31.000000         0.001130556       238.000584642       -17.218874216       -17.218312420        40.196762805
        63           31.500000         0.001128642       237.597691359       -17.219021539       -17.218312327        40.470992792
        64           32.000000         0.001269502       267.251098518       -17.219166245       -17.218313215        40.620707602
        65           32.500000         0.001444469       304.084509510       -17.219315565       -17.218315089        40.364959326
        66           33.000000         0.001699175       357.704240097       -17.219443033       -17.218317507        40.109879575
        67           33.500000         0.001956966       411.973582436       -17.219495762       -17.218319492        40.649523395
        68           34.000000         0.002179962       458.917773710       -17.219424837       -17.218320020        40.623678697
        69           34.500000         0.001651333       347.632713755       -17.219219138       -17.218318026        40.515903440
        70           35.000000         0.001239626       260.961670023       -17.218929284       -17.218314100        41.026461566
        71           35.500000         0.000980534       206.418608710       -17.218594378       -17.218309335        40.503291986
        72           36.000000         0.000653730       137.620840619       -17.218317644       -17.218306234        47.504257295
        73           36.500000         0.000420016        88.420252184       -17.218146149       -17.218306156        40.755448707
        74           37.000000         0.000327407        68.924452279       -17.218081053       -17.218308615        40.472386643
        75           37.500000         0.000416079        87.591518998       -17.218079795       -17.218311805        40.462779318
        76           38.000000         0.000342630        72.129222573       -17.218095810       -17.218313608        40.896708202
        77           38.500000         0.000382318        80.484258281       -17.218100128       -17.218313169        40.573670947
        78           39.000000         0.000436719        91.936500167       -17.218083889       -17.218310410        40.396187180
        79           39.500000         0.000466769        98.262503728       -17.218077751       -17.218306868        40.759712635
        80           40.000000         0.000424287        89.319341816       -17.218136168       -17.218304592        40.903297452
        81           40.500000         0.000665522       140.103240988       -17.218298866       -17.218304570        40.225623680
        82           41.000000         0.000979714       206.245993062       -17.218566928       -17.218307078        48.882941980
        83           41.500000         0.001397993       294.300503670       -17.218908382       -17.218311616        51.675709480
        84           42.000000         0.001860152       391.592500706       -17.219248589       -17.218316810        75.291819627
        85           42.500000         0.002219026       467.141382210       -17.219495769       -17.218320621        62.181710390
        86           43.000000         0.002145550       451.673631088       -17.219567377       -17.218321008        55.909371898
        87           43.500000         0.002206495       464.503364322       -17.219466619       -17.218317734        50.189726287
        88           44.000000         0.002051429       431.859537477       -17.219236261       -17.218312161        68.299405316
        89           44.500000         0.001596950       336.184158942       -17.218962815       -17.218307255        57.270678225
        90           45.000000         0.001336759       281.409809415       -17.218722644       -17.218305569        75.897877989
        91           45.500000         0.001085651       228.547464023       -17.218565046       -17.218307427        59.617441399
        92           46.000000         0.000965431       203.239089955       -17.218449292       -17.218310922        49.471802443
        93           46.500000         0.000870366       183.226274411       -17.218321283       -17.218313215        61.183954651
        94           47.000000         0.000816511       171.888911359       -17.218133232       -17.218312487        46.658621413
        95           47.500000         0.000620575       130.641233424       -17.217873710       -17.218308480        40.136137938
        96           48.000000         0.000254106        53.493445791       -17.217610035       -17.218303125        70.779747102
        97           48.500000         0.000106615        22.444234769       -17.217465495       -17.218299514       115.410371926
        98           49.000000         0.000094161        19.822388654       -17.217474151       -17.218298358        55.290847272
        99           49.500000         0.000299102        62.965960076       -17.217657614       -17.218300053        84.624649232
       100           50.000000         0.000571613       120.333973858       -17.217975746       -17.218304125        58.229209079
       101           50.500000         0.001066323       224.478581396       -17.218381614       -17.218309723        75.407922281
       102           51.000000         0.001566710       329.818273566       -17.218790581       -17.218315210        83.016453415
       103           51.500000         0.001965154       413.697171044       -17.219099952       -17.218318360        57.144956850
       104           52.000000         0.002213269       465.929536789       -17.219258689       -17.218317657        58.433298571
       105           52.500000         0.001841407       387.646403101       -17.219270707       -17.218313634        53.347250942
       106           53.000000         0.002017073       424.627056089       -17.219213066       -17.218308763        75.953524634
       107           53.500000         0.001923207       404.866751688       -17.219146160       -17.218305901        72.349969676
       108           54.000000         0.001751970       368.818403260       -17.219120015       -17.218307310        86.012957496
       109           54.500000         0.001749118       368.218022134       -17.219116876       -17.218311855        64.278690391
       110           55.000000         0.001783943       375.549293899       -17.219066447       -17.218316293        70.156860871
       111           55.500000         0.001634785       344.149181379       -17.218898214       -17.218317470        77.649027740
       112           56.000000         0.001462998       307.985039756       -17.218587109       -17.218314389        70.747031853
       113           56.500000         0.000916416       192.920597938       -17.218184732       -17.218308460        79.207673551
       114           57.000000         0.000569650       119.920693602       -17.217782338       -17.218302151        72.051710073
       115           57.500000         0.000158911        33.453458294       -17.217480664       -17.218297740        58.709309627
       116           58.000000         0.000038451         8.094533307       -17.217405553       -17.218297340        78.810990343
       117           58.500000         0.000116905        24.610504641       -17.217509731       -17.218300146        60.425318118
       118           59.000000         0.000320562        67.483663069       -17.217753375       -17.218305440        76.870631491
       119           59.500000         0.000588202       123.826124849       -17.218049230       -17.218311143        59.036818436
       120           60.000000         0.000586655       123.500472264       -17.218295362       -17.218314686        87.284737356
       121           60.500000         0.000829730       174.671881377       -17.218477332       -17.218315465        50.386107867
       122           61.000000         0.000972326       204.690517346       -17.218615131       -17.218313548        52.595009070
       123           61.500000         0.001114731       234.669274890       -17.218725351       -17.218310230        49.949400540
       124           62.000000         0.001094168       230.340252390       -17.218860861       -17.218308103        56.145870382
       125           62.500000         0.001046230       220.248613839       -17.219040064       -17.218309275        84.310375088
       126           63.000000         0.001272544       267.891355740       -17.219270928       -17.218313526        50.456564624
       127           63.500000         0.001622031       341.464115508       -17.219495045       -17.218318814        59.109303756
       128           64.000000         0.001669680       351.495148221       -17.219618187       -17.218322147        68.451541966
       129           64.500000         0.001639003       345.037026590       -17.219591928       -17.218322143        56.890145947
       130           65.000000         0.001626160       342.333420800       -17.219412676       -17.218319035        59.977669166
       131           65.500000         0.001380557       290.629971453       -17.219116093       -17.218314111       101.687040831
       132           66.000000         0.000851048       179.159537225       -17.218816061       -17.218309824        45.314619457
       133           66.500000         0.000645496       135.887482467       -17.218537983       -17.218306902        50.037035118
       134           67.000000         0.000479679       100.980275419       -17.218348331       -17.218306259        57.525842464
       135           67.500000         0.000398002        83.785965926       -17.218257507       -17.218307761        69.385383224
       136           68.000000         0.000374562        78.851382753       -17.218240491       -17.218310595        46.694290142
       137           68.500000         0.000455920        95.978688412       -17.218255341       -17.218313342        44.628301700
       138           69.000000         0.000446295        93.952353113       -17.218246016       -17.218314709        73.355808866
       139           69.500000         0.000371584        78.224468175       -17.218186542       -17.218312744        61.939447055
       140           70.000000         0.000469531        98.843937411       -17.218107418       -17.218308066        59.589303096
       141           70.500000         0.000567505       119.469077273       -17.218038886       -17.218300853        51.219394447
       142           71.000000         0.000577128       121.494983665       -17.218082631       -17.218295904       102.977918079
       143           71.500000         0.000692263       145.732805350       -17.218305141       -17.218297376       115.826035654
       144           72.000000         0.001077906       226.916948226       -17.218682307       -17.218304844        76.793578929
       145           72.500000         0.001533454       322.817345258       -17.219113153       -17.218314500        62.711179258
       146           73.000000         0.001704675       358.862097980       -17.219456049       -17.218321486        72.024193717
       147           73.500000         0.001804850       379.950580837       -17.219594579       -17.218322893        52.434814296
       148           74.000000         0.001689679       355.705151835       -17.219519586       -17.218319169        63.601502302
       149           74.500000         0.001467756       308.986777176       -17.219290766       -17.218312724        76.417920952
       150           75.000000         0.001265952       266.503626190       -17.219006028       -17.218306261        47.341739224
       151           75.500000         0.001048184       220.659957352       -17.218741257       -17.218301641        53.055126895
       152           76.000000         0.000887668       186.868620322       -17.218596240       -17.218300782        86.420354065
       153           76.500000         0.000718101       151.172068958       -17.218583536       -17.218303673        52.569082002
       154           77.000000         0.000988117       208.014884609       -17.218655199       -17.218309324        51.447332887
       155           77.500000         0.000935447       196.926941845       -17.218722134       -17.218315472        88.074035832
       156           78.000000         0.000944634       198.860934309       -17.218687953       -17.218318739        74.042968487
       157           78.500000         0.000721235       151.831765397       -17.218506607       -17.218316625        50.367627022
       158           79.000000         0.000431600        90.858957003       -17.218230895       -17.218309412        71.321375260
       159           79.500000         0.000219654        46.240806509       -17.217933575       -17.218299445        43.027503616
       160           80.000000         0.000079681        16.774100731       -17.217762789       -17.218292109        92.250485189
       161           80.500000         0.000293192        61.721672688       -17.217836502       -17.218292292        70.747360212
       162           81.000000         0.000829593       174.642986297       -17.218235688       -17.218301969        79.462922487
       163           81.500000         0.001282026       269.887615956       -17.218744154       -17.218313533        99.774651565
       164           82.000000         0.001612637       339.486649534       -17.219125957       -17.218319854        65.668948898
       165           82.500000         0.001762618       371.060076215       -17.219295794       -17.218319704        50.753287381
       166           83.000000         0.001907559       401.572474168       -17.219263879       -17.218314728        53.597177288
       167           83.500000         0.001655896       348.593382833       -17.219077684       -17.218307110        57.804523487
       168           84.000000         0.001446019       304.410807316       -17.218874912       -17.218301075        63.003762773
       169           84.500000         0.001397358       294.166856277       -17.218729005       -17.218297848        63.267606137
       170           85.000000         0.001378009       290.093527039       -17.218696624       -17.218298567        57.168230087
       171           85.500000         0.001441694       303.500353135       -17.218767037       -17.218302956        50.873480633
       172           86.000000         0.001472643       310.015533675       -17.218873214       -17.218309344        73.263891036
       173           86.500000         0.001648083       346.948619914       -17.218920692       -17.218315645        45.197795108
       174           87.000000         0.001816676       382.440114705       -17.218776497       -17.218318146        80.508081861
       175           87.500000         0.001406119       296.011129531       -17.218392958       -17.218312991        65.532531316
       176           88.000000         0.000878551       184.949501466       -17.217821146       -17.218300369        80.789665362
       177           88.500000         0.000445761        93.839987885       -17.217270842       -17.218286094        68.806126569
       178           89.000000         0.000085294        17.955757511       -17.216941214       -17.218277853        59.036299818
       179           89.500000         0.000136341        28.701928967       -17.216995699       -17.218281281        61.636847642
       180           90.000000         0.000606114       127.597010707       -17.217361574       -17.218293251        52.632792020
       181           90.500000         0.001059809       223.107115204       -17.217889928       -17.218306959        75.717687141
       182           91.000000         0.001545973       325.452714221       -17.218303125       -17.218314005        63.388307622
       183           91.500000         0.001642398       345.751858646       -17.218506023       -17.218312801        85.489852778
       184           92.000000         0.001556694       327.709684444       -17.218483190       -17.218305898        63.197051212
       185           92.500000         0.001585437       333.760606385       -17.218359789       -17.218297744        85.576117543
       186           93.000000         0.001640586       345.370325883       -17.218244068       -17.218290469        66.248961795
       187           93.500000         0.001763853       371.319968595       -17.218239105       -17.218286839        58.448621511
       188           94.000000         0.001854195       390.338489090       -17.218399642       -17.218288382        63.037011631
       189           94.500000         0.002064116       434.530395305       -17.218700987       -17.218295074        66.009602217
       190           95.000000         0.002702017       568.818913937       -17.219039777       -17.218305195        97.699330774
       191           95.500000         0.002661310       560.249550557       -17.219259141       -17.218315178        45.002107237
       192           96.000000         0.003042690       640.536181933       -17.219189331       -17.218319493        94.142405911
       193           96.500000         0.002591759       545.607916562       -17.218746581       -17.218313313        54.876302366
       194           97.000000         0.002043719       430.236339174       -17.218012563       -17.218296709        49.952486027
       195           97.500000         0.001385739       291.720737720       -17.217215882       -17.218277206        78.729670157
       196           98.000000         0.000909340       191.431063626       -17.216670006       -17.218267246        57.649518876
       197           98.500000         0.000809734       170.462221462       -17.216509947       -17.218272481        85.535178811
       198           99.000000         0.001017418       214.183244132       -17.216670446       -17.218287236        48.592442042
       199           99.500000         0.001221403       257.125440491       -17.216923300       -17.218300069        87.667003020
       200          100.000000         0.001246949       262.503248212       -17.217058842       -17.218304132        58.551521644
       201          100.500000         0.001247574       262.634769848       -17.217029860       -17.218300365        53.861400581
       202          101.000000         0.001110463       233.770680578       -17.216880430       -17.218292225        84.385855540
       203          101.500000         0.000850093       178.958508941       -17.216742710       -17.218284226        88.551975884
       204          102.000000         0.000783524       164.944704621       -17.216742933       -17.218278993        61.964207317
       205          102.500000         0.001253833       263.952519808       -17.216962851       -17.218278235        69.547515769
       206          103.000000         0.001763464       371.238180613       -17.217442209       -17.218282679        93.992917006
       207          103.500000         0.002137044       449.882926396       -17.218040274       -17.218291106        69.284236806
       208          104.000000         0.002724709       573.596020718       -17.218642512       -17.218301374        47.606016570
       209          104.500000         0.003510298       738.975403368       -17.219122334       -17.218310169        52.800193719
       210          105.000000         0.003854448       811.424688167       -17.219327381       -17.218312864        82.171592616
       211          105.500000         0.003708034       780.602014829       -17.219186920       -17.218306831        50.519438583
       212          106.000000         0.003659793       770.446623708       -17.218798130       -17.218295282        67.757416587
       213          106.500000         0.002996304       630.771180437       -17.218342577       -17.218285381        79.258575440
       214          107.000000         0.002673162       562.744451357       -17.217942021       -17.218282312        66.192915626
       215          107.500000         0.002509652       528.323058880       -17.217661039       -17.218286139        65.411785016
       216          108.000000         0.002136028       449.668936770       -17.217445654       -17.218292062        55.038470329
       217          108.500000         0.002111806       444.569919902       -17.217207977       -17.218295437        73.651622979
       218          109.000000         0.002011100       423.369629399       -17.216845581       -17.218293713        58.362343149
       219          109.500000         0.001289151       271.387406345       -17.216388064       -17.218287883        66.338119745
       220          110.000000         0.000599689       126.244417680       -17.215964458       -17.218281082        64.397373747
       221          110.500000         0.000346353        72.913052206       -17.215727910       -17.218276268        57.405935438
       222          111.000000         0.000359664        75.715144115       -17.215725665       -17.218274174        64.358648818
       223          111.500000         0.000795714       167.510777943       -17.215998374       -17.218275454        49.252338049
       224          112.000000         0.001241715       261.401338185       -17.216497880       -17.218280456        79.531276834
       225          112.500000         0.001887146       397.275299033       -17.217128705       -17.218288343        57.857758089
       226          113.000000         0.002768662       582.848942940       -17.217827958       -17.218297808        65.822503103
       227          113.500000         0.003266156       687.579407089       -17.218400974       -17.218304419        52.768999287