 DBCSR| Multiplication driver                                               BLAS
 DBCSR| Multrec recursion limit                                              512
 DBCSR| Multiplication stack size                                           1000
 DBCSR| Maximum elements for images                                    UNLIMITED
 DBCSR| Multiplicative factor virtual images                                   1
 DBCSR| Multiplication size stacks                                             3


  **** **** ******  **  PROGRAM STARTED AT               2020-05-18 23:43:52.183
 ***** ** ***  *** **   PROGRAM STARTED ON                                 sheep
 **    ****   ******    PROGRAM STARTED BY                                 sim03
 ***** **    ** ** **   PROGRAM PROCESS ID                               3456126
  **** **  *******  **  PROGRAM STARTED IN /auto.eland/home/sim03/Documents/SimP
                                           hys/Summer/2/cp2k/MONOMER_MD_TEST_200
                                           K

 CP2K| version string:                                          CP2K version 5.1
 CP2K| source code revision number:                                    svn:18091
 CP2K| cp2kflags: fftw3 max_contr=4                                             
 CP2K| is freely available from                            https://www.cp2k.org/
 CP2K| Program compiled at                         Thu May  9 16:52:28 CEST 2019
 CP2K| Program compiled on                                                  cip0
 CP2K| Program compiled for                                                 icp2
 CP2K| Data directory path          /auto.eland/group/allatom/cp2k/cp2k-5.1/data
 CP2K| Input file name                                      water_monomer_md.inp

 GLOBAL| Force Environment number                                              1
 GLOBAL| Basis set file name                                      ./BASIS_MOLOPT
 GLOBAL| Potential file name                                    ./GTH_POTENTIALS
 GLOBAL| MM Potential file name                                     MM_POTENTIAL
 GLOBAL| Coordinate file name                                  water-monomer.xyz
 GLOBAL| Method name                                                        CP2K
 GLOBAL| Project name                                             water_dimer_md
 GLOBAL| Preferred FFT library                                             FFTW3
 GLOBAL| Preferred diagonalization lib.                                       SL
 GLOBAL| Run type                                                             MD
 GLOBAL| All-to-all communication in single precision                          F
 GLOBAL| FFTs using library dependent lengths                                  F
 GLOBAL| Global print level                                                  LOW
 GLOBAL| Total number of message passing processes                             1
 GLOBAL| Number of threads for this process                                    1
 GLOBAL| This output is from process                                           0
 GLOBAL| CPU model name :  Intel(R) Core(TM) i7-3930K CPU @ 3.20GHz

 MEMORY| system memory details [Kb]
 MEMORY|                        rank 0           min           max       average
 MEMORY| MemTotal              8112104       8112104       8112104       8112104
 MEMORY| MemFree                288280        288280        288280        288280
 MEMORY| Buffers                 82400         82400         82400         82400
 MEMORY| Cached                2154888       2154888       2154888       2154888
 MEMORY| Slab                   335636        335636        335636        335636
 MEMORY| SReclaimable           250856        250856        250856        250856
 MEMORY| MemLikelyFree         2776424       2776424       2776424       2776424


 GENERATE|  Preliminary Number of Bonds generated:                             0
 GENERATE|  Achieved consistency in connectivity generation.

 *******************************************************************************
 *******************************************************************************
 **                                                                           **
 **     #####                         ##              ##                      **
 **    ##   ##            ##          ##              ##                      **
 **   ##     ##                       ##            ######                    **
 **   ##     ##  ##   ##  ##   #####  ##  ##   ####   ##    #####    #####    **
 **   ##     ##  ##   ##  ##  ##      ## ##   ##      ##   ##   ##  ##   ##   **
 **   ##  ## ##  ##   ##  ##  ##      ####     ###    ##   ######   ######    **
 **    ##  ###   ##   ##  ##  ##      ## ##      ##   ##   ##       ##        **
 **     #######   #####   ##   #####  ##  ##  ####    ##    #####   ##        **
 **           ##                                                    ##        **
 **                                                                           **
 **                                                ... make the atoms dance   **
 **                                                                           **
 **            Copyright (C) by CP2K developers group (2000 - 2017)           **
 **                                                                           **
 *******************************************************************************


 SCF PARAMETERS         Density guess:                                    ATOMIC
                        --------------------------------------------------------
                        max_scf:                                              50
                        max_scf_history:                                       0
                        max_diis:                                              4
                        --------------------------------------------------------
                        eps_scf:                                        1.00E-06
                        eps_scf_history:                                0.00E+00
                        eps_diis:                                       1.00E-01
                        eps_eigval:                                     1.00E-05
                        --------------------------------------------------------
                        level_shift [a.u.]:                                 0.00
                        --------------------------------------------------------
                        Outer loop SCF in use 
                        No variables optimised in outer loop
                        eps_scf                                         1.00E-06
                        max_scf                                               50
                        No outer loop optimization
                        step_size                                       5.00E-01

 MD| Molecular Dynamics Protocol 
 MD| Ensemble Type                                                           NVT
 MD| Number of Time Steps                                                   2000
 MD| Time Step [fs]                                                         0.50
 MD| Temperature [K]                                                      200.00
 MD| Temperature tolerance [K]                                              0.00
 MD| Print MD information every                                        1 step(s)
 MD| File type     Print frequency[steps]                             File names
 MD| Coordinates            1                           water_dimer_md-pos-1.xyz
 MD| Velocities             1                           water_dimer_md-vel-1.xyz
 MD| Energies               1                              water_dimer_md-1.ener
 MD| Dump                  20                           water_dimer_md-1.restart

 ROT| Rotational Analysis Info 
 ROT| Principal axes and moments of inertia in atomic units:
 ROT|                                1                 2                 3
 ROT| EIGENVALUES            0.378558736E+04   0.781823421E+04   0.116038216E+05
 ROT|      X                     0.015420980      -0.503682221       0.863751361
 ROT|      Y                     0.999391652      -0.019261298      -0.029074538
 ROT|      Z                     0.031281300       0.863674257       0.503078779
 ROT| Numer of Rotovibrational vectors:     6

 Calculation of degrees of freedom
                                                      Number of atoms:         3
                                 Number of Intramolecular constraints:         0
                                 Number of Intermolecular constraints:         0
                                  Invariants(translation + rotations):         6
                                                   Degrees of freedom:         3


 Restraints Information
                                  Number of Intramolecular restraints:         0
                                  Number of Intermolecular restraints:         0

 THERMOSTAT| Thermostat Info for PARTICLES
 THERMOSTAT| Type of thermostat            Canonical Sampling/Velocity Rescaling
 THERMOSTAT| CSVR time constant [  fs]                                     50.00
 THERMOSTAT| Initial Kinetic Energy                                     0.000000
 THERMOSTAT| End of Thermostat Info for PARTICLES

 ************************** Velocities initialization **************************
 Initial Temperature                                                    200.00 K
 COM velocity:           -0.000000000000     -0.000000000000      0.000000000000
 COM position:           13.951164069686     14.154522030052     14.556769196059
 Angular velocity:       -0.000000000000      0.000000000000     -0.000000000000
 *******************************************************************************


 Number of electrons:                                                          8
 Number of occupied orbitals:                                                  4
 Number of molecular orbitals:                                                 4

 Number of orbital functions:                                                 23
 Number of independent orbital functions:                                     23

 Extrapolation method: initial_guess


 SCF WAVEFUNCTION OPTIMIZATION

  ----------------------------------- OT ---------------------------------------
  Minimizer      : DIIS                : direct inversion
                                         in the iterative subspace
                                         using   7 DIIS vectors
                                         safer DIIS on
  Preconditioner : FULL_ALL            : diagonalization, state selective
  Precond_solver : DEFAULT
  stepsize       :    0.15000000                  energy_gap     :    0.08000000
  eps_taylor     :   0.10000E-15                  max_taylor     :             4
  ----------------------------------- OT ---------------------------------------

  Step     Update method      Time    Convergence         Total energy    Change
  ------------------------------------------------------------------------------
     1 OT DIIS     0.15E+00    7.8     0.23299381       -16.8943468602 -1.69E+01
     2 OT DIIS     0.15E+00    6.3     0.16004571       -17.1079059891 -2.14E-01
     3 OT DIIS     0.15E+00    6.2     0.03166420       -17.2107257460 -1.03E-01
     4 OT DIIS     0.15E+00    6.7     0.00822989       -17.2184549060 -7.73E-03
     5 OT DIIS     0.15E+00    6.6     0.00156240       -17.2192418285 -7.87E-04
     6 OT DIIS     0.15E+00    6.7     0.00041081       -17.2192654969 -2.37E-05
     7 OT DIIS     0.15E+00    6.6     0.00006587       -17.2192674939 -2.00E-06
     8 OT DIIS     0.15E+00    6.8     0.00001523       -17.2192675395 -4.57E-08
     9 OT DIIS     0.15E+00    6.8     0.00000313       -17.2192675423 -2.74E-09
    10 OT DIIS     0.15E+00    6.7     0.00000075       -17.2192675424 -1.15E-10

  *** SCF run converged in    10 steps ***


  Electronic density on regular grids:         -8.0000000193       -0.0000000193
  Core density on regular grids:                7.9999999997       -0.0000000003
  Total charge density on r-space grids:       -0.0000000195
  Total charge density g-space grids:          -0.0000000196

  Overlap energy of the core charge distribution:               0.00000006293707
  Self energy of the core charge distribution:                -44.34715499673765
  Core Hamiltonian energy:                                     12.91238702080867
  Hartree energy:                                              18.44519938864851
  Exchange-correlation energy:                                 -4.22969483712925
  Dispersion energy:                                           -0.00000418091608

  Total energy:                                               -17.21926754238873

  outer SCF iter =    1 RMS gradient =   0.75E-06 energy =        -17.2192675424
  outer SCF loop converged in   1 iterations or   10 steps


 MOMENTS
  The electric/magnetic moments are written to file:
  water_dimer_dipole.out


 ENERGY| Total FORCE_EVAL ( QS ) energy (a.u.):              -17.219267542392444


 MD_ENERGIES| Initialization proceeding


 ******************************** GO CP2K GO! **********************************
 INITIAL POTENTIAL ENERGY[hartree]     =                     -0.172192675424E+02
 INITIAL KINETIC ENERGY[hartree]       =                      0.950044602986E-03
 INITIAL TEMPERATURE[K]                =                                 200.000
 INITIAL VOLUME[bohr^3]                =                      0.227756292179E+05
 INITIAL CELL LNTHS[bohr]   =      0.2834589E+02   0.2834589E+02   0.2834589E+02
 INITIAL CELL ANGLS[deg]    =      0.9000000E+02   0.9000000E+02   0.9000000E+02
 ******************************** GO CP2K GO! **********************************

 Number of electrons:                                                          8
 Number of occupied orbitals:                                                  4
 Number of molecular orbitals:                                                 4

 Number of orbital functions:                                                 23
 Number of independent orbital functions:                                     23

 Extrapolation method: ASPC


 SCF WAVEFUNCTION OPTIMIZATION

  ----------------------------------- OT ---------------------------------------
  Minimizer      : DIIS                : direct inversion
                                         in the iterative subspace
                                         using   7 DIIS vectors
                                         safer DIIS on
  Preconditioner : FULL_ALL            : diagonalization, state selective
  Precond_solver : DEFAULT
  stepsize       :    0.15000000                  energy_gap     :    0.08000000
  eps_taylor     :   0.10000E-15                  max_taylor     :             4
  ----------------------------------- OT ---------------------------------------

  Step     Update method      Time    Convergence         Total energy    Change
  ------------------------------------------------------------------------------
     1 OT DIIS     0.15E+00    6.1     0.00138433       -17.2193965391 -1.72E+01
     2 OT DIIS     0.15E+00    6.7     0.00062332       -17.2194130133 -1.65E-05
     3 OT DIIS     0.15E+00    6.7     0.00035928       -17.2194157070 -2.69E-06
     4 OT DIIS     0.15E+00    6.7     0.00001213       -17.2194164656 -7.59E-07
     5 OT DIIS     0.15E+00    6.7     0.00000363       -17.2194164670 -1.40E-09
     6 OT DIIS     0.15E+00    6.7     0.00000018       -17.2194164671 -1.45E-10

  *** SCF run converged in     6 steps ***


  Electronic density on regular grids:         -8.0000000144       -0.0000000144
  Core density on regular grids:                7.9999999997       -0.0000000003
  Total charge density on r-space grids:       -0.0000000147
  Total charge density g-space grids:          -0.0000000147

  Overlap energy of the core charge distribution:               0.00000005772574
  Self energy of the core charge distribution:                -44.34715499673765
  Core Hamiltonian energy:                                     12.90371835708421
  Hartree energy:                                              18.45146010163963
  Exchange-correlation energy:                                 -4.22743589094783
  Dispersion energy:                                           -0.00000409590034

  Total energy:                                               -17.21941646713625

  outer SCF iter =    1 RMS gradient =   0.18E-06 energy =        -17.2194164671
  outer SCF loop converged in   1 iterations or    6 steps


 MOMENTS
  The electric/magnetic moments are written to file:
  water_dimer_dipole.out


 ENERGY| Total FORCE_EVAL ( QS ) energy (a.u.):              -17.219416467137101


 Temperature scaled to requested temperature:    216.29 K  ->    216.30 K
 MD| Old VCOM =    -0.0000015277   -0.0000000457    0.0000006952 a.u.
 MD| New VCOM =     0.0000000000   -0.0000000000    0.0000000000 a.u
 MD| Old VANG =    -0.0000001239   -0.0000011839    0.0000001044 a.u.
 MD| New VANG =    -0.0000000000    0.0000000000    0.0000000000 a.u

 *******************************************************************************
 ENSEMBLE TYPE                =                                              NVT
 STEP NUMBER                  =                                                1
 TIME [fs]                    =                                         0.500000
 CONSERVED QUANTITY [hartree] =                              -0.172183193764E+02

                                              INSTANTANEOUS             AVERAGES
 CPU TIME [s]                 =                      122.60               122.60
 ENERGY DRIFT PER ATOM [K]    =         -0.197739045481E+00   0.000000000000E+00
 POTENTIAL ENERGY[hartree]    =         -0.172194164671E+02  -0.172194164671E+02
 KINETIC ENERGY [hartree]     =          0.102747518728E-02   0.102747518728E-02
 TEMPERATURE [K]              =                     216.300              216.300
 *******************************************************************************


 Number of electrons:                                                          8
 Number of occupied orbitals:                                                  4
 Number of molecular orbitals:                                                 4

 Number of orbital functions:                                                 23
 Number of independent orbital functions:                                     23

 Extrapolation method: ASPC


 SCF WAVEFUNCTION OPTIMIZATION

  ----------------------------------- OT ---------------------------------------
  Minimizer      : DIIS                : direct inversion
                                         in the iterative subspace
                                         using   7 DIIS vectors
                                         safer DIIS on
  Preconditioner : FULL_ALL            : diagonalization, state selective
  Precond_solver : DEFAULT
  stepsize       :    0.15000000                  energy_gap     :    0.08000000
  eps_taylor     :   0.10000E-15                  max_taylor     :             4
  ----------------------------------- OT ---------------------------------------

  Step     Update method      Time    Convergence         Total energy    Change
  ------------------------------------------------------------------------------
     1 OT DIIS     0.15E+00    5.9     0.00024074       -17.2195047332 -1.72E+01
     2 OT DIIS     0.15E+00    6.9     0.00011629       -17.2195051621 -4.29E-07
     3 OT DIIS     0.15E+00    6.8     0.00005656       -17.2195052342 -7.22E-08
     4 OT DIIS     0.15E+00    6.7     0.00000422       -17.2195052561 -2.18E-08
     5 OT DIIS     0.15E+00    6.6     0.00000080       -17.2195052562 -1.83E-10

  *** SCF run converged in     5 steps ***


  Electronic density on regular grids:         -8.0000000095       -0.0000000095
  Core density on regular grids:                7.9999999997       -0.0000000003
  Total charge density on r-space grids:       -0.0000000098
  Total charge density g-space grids:          -0.0000000098

  Overlap energy of the core charge distribution:               0.00000005185143
  Self energy of the core charge distribution:                -44.34715499673765
  Core Hamiltonian energy:                                     12.89272338185718
  Hartree energy:                                              18.45942735916848
  Exchange-correlation energy:                                 -4.22449701225884
  Dispersion energy:                                           -0.00000404012957

  Total energy:                                               -17.21950525624896

  outer SCF iter =    1 RMS gradient =   0.80E-06 energy =        -17.2195052562
  outer SCF loop converged in   1 iterations or    5 steps


 MOMENTS
  The electric/magnetic moments are written to file:
  water_dimer_dipole.out


 ENERGY| Total FORCE_EVAL ( QS ) energy (a.u.):              -17.219505256255239


 Temperature scaled to requested temperature:    204.29 K  ->    204.31 K
 MD| Old VCOM =    -0.0000016309   -0.0000000101    0.0000007010 a.u.
 MD| New VCOM =    -0.0000000000    0.0000000000   -0.0000000000 a.u
 MD| Old VANG =    -0.0000001137   -0.0000012244    0.0000000851 a.u.
 MD| New VANG =    -0.0000000000   -0.0000000000   -0.0000000000 a.u

 *******************************************************************************
 ENSEMBLE TYPE                =                                              NVT
 STEP NUMBER                  =                                                2
 TIME [fs]                    =                                         1.000000
 CONSERVED QUANTITY [hartree] =                              -0.172183202819E+02

                                              INSTANTANEOUS             AVERAGES
 CPU TIME [s]                 =                       40.90                81.75
 ENERGY DRIFT PER ATOM [K]    =         -0.293054529454E+00  -0.146527264727E+00
 POTENTIAL ENERGY[hartree]    =         -0.172195052563E+02  -0.172194608617E+02
 KINETIC ENERGY [hartree]     =          0.970495304542E-03   0.998985245912E-03
 TEMPERATURE [K]              =                     204.305              210.303
 *******************************************************************************


 Number of electrons:                                                          8
 Number of occupied orbitals:                                                  4
 Number of molecular orbitals:                                                 4

 Number of orbital functions:                                                 23
 Number of independent orbital functions:                                     23

 Extrapolation method: ASPC


 SCF WAVEFUNCTION OPTIMIZATION

  ----------------------------------- OT ---------------------------------------
  Minimizer      : DIIS                : direct inversion
                                         in the iterative subspace
                                         using   7 DIIS vectors
                                         safer DIIS on
  Preconditioner : FULL_ALL            : diagonalization, state selective
  Precond_solver : DEFAULT
  stepsize       :    0.15000000                  energy_gap     :    0.08000000
  eps_taylor     :   0.10000E-15                  max_taylor     :             4
  ----------------------------------- OT ---------------------------------------

  Step     Update method      Time    Convergence         Total energy    Change
  ------------------------------------------------------------------------------
     1 OT DIIS     0.15E+00    5.9     0.00011709       -17.2195334634 -1.72E+01
     2 OT DIIS     0.15E+00    6.8     0.00005095       -17.2195335800 -1.17E-07
     3 OT DIIS     0.15E+00    6.6     0.00002970       -17.2195335977 -1.77E-08
     4 OT DIIS     0.15E+00    6.7     0.00000181       -17.2195336027 -5.04E-09
     5 OT DIIS     0.15E+00    6.6     0.00000045       -17.2195336027 -2.91E-11

  *** SCF run converged in     5 steps ***


  Electronic density on regular grids:         -8.0000000044       -0.0000000044
  Core density on regular grids:                7.9999999997       -0.0000000003
  Total charge density on r-space grids:       -0.0000000047
  Total charge density g-space grids:          -0.0000000047

  Overlap energy of the core charge distribution:               0.00000004554100
  Self energy of the core charge distribution:                -44.34715499673765
  Core Hamiltonian energy:                                     12.87986850989007
  Hartree energy:                                              18.46877418954337
  Exchange-correlation energy:                                 -4.22101735205640
  Dispersion energy:                                           -0.00000399890934

  Total energy:                                               -17.21953360272895

  outer SCF iter =    1 RMS gradient =   0.45E-06 energy =        -17.2195336027
  outer SCF loop converged in   1 iterations or    5 steps


 MOMENTS
  The electric/magnetic moments are written to file:
  water_dimer_dipole.out


 ENERGY| Total FORCE_EVAL ( QS ) energy (a.u.):              -17.219533602732746


 Temperature scaled to requested temperature:    214.54 K  ->    214.55 K
 MD| Old VCOM =    -0.0000017567    0.0000000265    0.0000007116 a.u.
 MD| New VCOM =     0.0000000000    0.0000000000   -0.0000000000 a.u
 MD| Old VANG =    -0.0000000930   -0.0000012790    0.0000000589 a.u.
 MD| New VANG =     0.0000000000    0.0000000000    0.0000000000 a.u

 *******************************************************************************
 ENSEMBLE TYPE                =                                              NVT
 STEP NUMBER                  =                                                3
 TIME [fs]                    =                                         1.500000
 CONSERVED QUANTITY [hartree] =                              -0.172183203068E+02

                                              INSTANTANEOUS             AVERAGES
 CPU TIME [s]                 =                       40.64                68.05
 ENERGY DRIFT PER ATOM [K]    =         -0.295668862169E+00  -0.196241130541E+00
 POTENTIAL ENERGY[hartree]    =         -0.172195336027E+02  -0.172194851087E+02
 KINETIC ENERGY [hartree]     =          0.101917527950E-02   0.100571525711E-02
 TEMPERATURE [K]              =                     214.553              211.720
 *******************************************************************************


 Number of electrons:                                                          8
 Number of occupied orbitals:                                                  4
 Number of molecular orbitals:                                                 4

 Number of orbital functions:                                                 23
 Number of independent orbital functions:                                     23

 Extrapolation method: ASPC


 SCF WAVEFUNCTION OPTIMIZATION

  ----------------------------------- OT ---------------------------------------
  Minimizer      : DIIS                : direct inversion
                                         in the iterative subspace
                                         using   7 DIIS vectors
                                         safer DIIS on
  Preconditioner : FULL_ALL            : diagonalization, state selective
  Precond_solver : DEFAULT
  stepsize       :    0.15000000                  energy_gap     :    0.08000000
  eps_taylor     :   0.10000E-15                  max_taylor     :             4
  ----------------------------------- OT ---------------------------------------

  Step     Update method      Time    Convergence         Total energy    Change
  ------------------------------------------------------------------------------
     1 OT DIIS     0.15E+00    5.8     0.00019340       -17.2195060762 -1.72E+01
     2 OT DIIS     0.15E+00    6.6     0.00009130       -17.2195063814 -3.05E-07
     3 OT DIIS     0.15E+00    6.6     0.00005058       -17.2195064322 -5.08E-08
     4 OT DIIS     0.15E+00    6.6     0.00000211       -17.2195064483 -1.61E-08
     5 OT DIIS     0.15E+00    6.8     0.00000061       -17.2195064484 -4.40E-11

  *** SCF run converged in     5 steps ***


  Electronic density on regular grids:         -7.9999999998        0.0000000002
  Core density on regular grids:                7.9999999997       -0.0000000003
  Total charge density on r-space grids:       -0.0000000001
  Total charge density g-space grids:          -0.0000000001

  Overlap energy of the core charge distribution:               0.00000003982841
  Self energy of the core charge distribution:                -44.34715499673765
  Core Hamiltonian energy:                                     12.86741845724312
  Hartree energy:                                              18.47785926057729
  Exchange-correlation energy:                                 -4.21762524527194
  Dispersion energy:                                           -0.00000396400515

  Total energy:                                               -17.21950644836591

  outer SCF iter =    1 RMS gradient =   0.61E-06 energy =        -17.2195064484
  outer SCF loop converged in   1 iterations or    5 steps


 MOMENTS
  The electric/magnetic moments are written to file:
  water_dimer_dipole.out


 ENERGY| Total FORCE_EVAL ( QS ) energy (a.u.):              -17.219506448370211


 Temperature scaled to requested temperature:    188.06 K  ->    188.07 K
 MD| Old VCOM =    -0.0000019023    0.0000000650    0.0000007264 a.u.
 MD| New VCOM =     0.0000000000    0.0000000000    0.0000000000 a.u
 MD| Old VANG =    -0.0000000652   -0.0000013563    0.0000000282 a.u.
 MD| New VANG =     0.0000000000   -0.0000000000    0.0000000000 a.u

 *******************************************************************************
 ENSEMBLE TYPE                =                                              NVT
 STEP NUMBER                  =                                                4
 TIME [fs]                    =                                         2.000000
 CONSERVED QUANTITY [hartree] =                              -0.172183196817E+02

                                              INSTANTANEOUS             AVERAGES
 CPU TIME [s]                 =                       40.45                61.15
 ENERGY DRIFT PER ATOM [K]    =         -0.229875930199E+00  -0.204649830455E+00
 POTENTIAL ENERGY[hartree]    =         -0.172195064484E+02  -0.172194904436E+02
 KINETIC ENERGY [hartree]     =          0.893395252673E-03   0.977635256001E-03
 TEMPERATURE [K]              =                     188.074              205.808
 *******************************************************************************


 Number of electrons:                                                          8
 Number of occupied orbitals:                                                  4
 Number of molecular orbitals:                                                 4

 Number of orbital functions:                                                 23
 Number of independent orbital functions:                                     23

 Extrapolation method: ASPC


 SCF WAVEFUNCTION OPTIMIZATION

  ----------------------------------- OT ---------------------------------------
  Minimizer      : DIIS                : direct inversion
                                         in the iterative subspace
                                         using   7 DIIS vectors
                                         safer DIIS on
  Preconditioner : FULL_ALL            : diagonalization, state selective
  Precond_solver : DEFAULT
  stepsize       :    0.15000000                  energy_gap     :    0.08000000
  eps_taylor     :   0.10000E-15                  max_taylor     :             4
  ----------------------------------- OT ---------------------------------------

  Step     Update method      Time    Convergence         Total energy    Change
  ------------------------------------------------------------------------------
     1 OT DIIS     0.15E+00    5.7     0.00006975       -17.2194401810 -1.72E+01
     2 OT DIIS     0.15E+00    6.6     0.00002729       -17.2194402265 -4.56E-08
     3 OT DIIS     0.15E+00    6.5     0.00001085       -17.2194402342 -7.63E-09
     4 OT DIIS     0.15E+00    6.6     0.00000118       -17.2194402347 -5.24E-10
     5 OT DIIS     0.15E+00    6.9     0.00000024       -17.2194402347 -5.91E-12

  *** SCF run converged in     5 steps ***


  Electronic density on regular grids:         -7.9999999956        0.0000000044
  Core density on regular grids:                7.9999999997       -0.0000000003
  Total charge density on r-space grids:        0.0000000041
  Total charge density g-space grids:           0.0000000041

  Overlap energy of the core charge distribution:               0.00000003483474
  Self energy of the core charge distribution:                -44.34715499673765
  Core Hamiltonian energy:                                     12.85590273482861
  Hartree energy:                                              18.48629672983659
  Exchange-correlation energy:                                 -4.21448081445002
  Dispersion energy:                                           -0.00000392300445

  Total energy:                                               -17.21944023469218

  outer SCF iter =    1 RMS gradient =   0.24E-06 energy =        -17.2194402347
  outer SCF loop converged in   1 iterations or    5 steps


 MOMENTS
  The electric/magnetic moments are written to file:
  water_dimer_dipole.out


 ENERGY| Total FORCE_EVAL ( QS ) energy (a.u.):              -17.219440234693089


 Temperature scaled to requested temperature:    168.01 K  ->    168.03 K
 MD| Old VCOM =    -0.0000019918    0.0000001018    0.0000007200 a.u.
 MD| New VCOM =     0.0000000000   -0.0000000000    0.0000000000 a.u
 MD| Old VANG =    -0.0000000352   -0.0000014080   -0.0000000035 a.u.
 MD| New VANG =    -0.0000000000    0.0000000000    0.0000000000 a.u

 *******************************************************************************
 ENSEMBLE TYPE                =                                              NVT
 STEP NUMBER                  =                                                5
 TIME [fs]                    =                                         2.500000
 CONSERVED QUANTITY [hartree] =                              -0.172183187051E+02

                                              INSTANTANEOUS             AVERAGES
 CPU TIME [s]                 =                       40.53                57.02
 ENERGY DRIFT PER ATOM [K]    =         -0.127080658231E+00  -0.189135996011E+00
 POTENTIAL ENERGY[hartree]    =         -0.172194402347E+02  -0.172194804018E+02
 KINETIC ENERGY [hartree]     =          0.798180124934E-03   0.941744229787E-03
 TEMPERATURE [K]              =                     168.030              198.253
 *******************************************************************************


 Number of electrons:                                                          8
 Number of occupied orbitals:                                                  4
 Number of molecular orbitals:                                                 4

 Number of orbital functions:                                                 23
 Number of independent orbital functions:                                     23

 Extrapolation method: ASPC


 SCF WAVEFUNCTION OPTIMIZATION

  ----------------------------------- OT ---------------------------------------
  Minimizer      : DIIS                : direct inversion
                                         in the iterative subspace
                                         using   7 DIIS vectors
                                         safer DIIS on
  Preconditioner : FULL_ALL            : diagonalization, state selective
  Precond_solver : DEFAULT
  stepsize       :    0.15000000                  energy_gap     :    0.08000000
  eps_taylor     :   0.10000E-15                  max_taylor     :             4
  ----------------------------------- OT ---------------------------------------

  Step     Update method      Time    Convergence         Total energy    Change
  ------------------------------------------------------------------------------
     1 OT DIIS     0.15E+00    5.8     0.00010130       -17.2193337512 -1.72E+01
     2 OT DIIS     0.15E+00    6.6     0.00003831       -17.2193338480 -9.68E-08
     3 OT DIIS     0.15E+00    6.6     0.00000353       -17.2193338645 -1.65E-08
     4 OT DIIS     0.15E+00    6.7     0.00000176       -17.2193338646 -9.31E-11
     5 OT DIIS     0.15E+00    6.7     0.00000044       -17.2193338646 -1.45E-11

  *** SCF run converged in     5 steps ***


  Electronic density on regular grids:         -7.9999999915        0.0000000085
  Core density on regular grids:                7.9999999998       -0.0000000002
  Total charge density on r-space grids:        0.0000000083
  Total charge density g-space grids:           0.0000000082

  Overlap energy of the core charge distribution:               0.00000003044391
  Self energy of the core charge distribution:                -44.34715499673765
  Core Hamiltonian energy:                                     12.84512492541722
  Hartree energy:                                              18.49424328402257
  Exchange-correlation energy:                                 -4.21154324615405
  Dispersion energy:                                           -0.00000386163518

  Total energy:                                               -17.21933386464319

  outer SCF iter =    1 RMS gradient =   0.44E-06 energy =        -17.2193338646
  outer SCF loop converged in   1 iterations or    5 steps


 MOMENTS
  The electric/magnetic moments are written to file:
  water_dimer_dipole.out


 ENERGY| Total FORCE_EVAL ( QS ) energy (a.u.):              -17.219333864644483


 Temperature scaled to requested temperature:    183.97 K  ->    183.98 K
 MD| Old VCOM =    -0.0000020695    0.0000001400    0.0000007077 a.u.
 MD| New VCOM =     0.0000000000    0.0000000000    0.0000000000 a.u
 MD| Old VANG =    -0.0000000114   -0.0000014643   -0.0000000339 a.u.
 MD| New VANG =    -0.0000000000    0.0000000000    0.0000000000 a.u

 *******************************************************************************
 ENSEMBLE TYPE                =                                              NVT
 STEP NUMBER                  =                                                6
 TIME [fs]                    =                                         3.000000
 CONSERVED QUANTITY [hartree] =                              -0.172183174001E+02

                                              INSTANTANEOUS             AVERAGES
 CPU TIME [s]                 =                       40.60                54.29
 ENERGY DRIFT PER ATOM [K]    =          0.102821880544E-01  -0.155899632000E+00
 POTENTIAL ENERGY[hartree]    =         -0.172193338646E+02  -0.172194559790E+02
 KINETIC ENERGY [hartree]     =          0.873953731528E-03   0.930445813411E-03
 TEMPERATURE [K]              =                     183.982              195.874
 *******************************************************************************


 Number of electrons:                                                          8
 Number of occupied orbitals:                                                  4
 Number of molecular orbitals:                                                 4

 Number of orbital functions:                                                 23
 Number of independent orbital functions:                                     23

 Extrapolation method: ASPC


 SCF WAVEFUNCTION OPTIMIZATION

  ----------------------------------- OT ---------------------------------------
  Minimizer      : DIIS                : direct inversion
                                         in the iterative subspace
                                         using   7 DIIS vectors
                                         safer DIIS on
  Preconditioner : FULL_ALL            : diagonalization, state selective
  Precond_solver : DEFAULT
  stepsize       :    0.15000000                  energy_gap     :    0.08000000
  eps_taylor     :   0.10000E-15                  max_taylor     :             4
  ----------------------------------- OT ---------------------------------------

  Step     Update method      Time    Convergence         Total energy    Change
  ------------------------------------------------------------------------------
     1 OT DIIS     0.15E+00    5.9     0.00027935       -17.2192101605 -1.72E+01
     2 OT DIIS     0.15E+00    6.7     0.00015197       -17.2192107088 -5.48E-07
     3 OT DIIS     0.15E+00    6.6     0.00006734       -17.2192108247 -1.16E-07
     4 OT DIIS     0.15E+00    6.6     0.00000234       -17.2192108594 -3.47E-08
     5 OT DIIS     0.15E+00    6.7     0.00000053       -17.2192108595 -5.71E-11

  *** SCF run converged in     5 steps ***


  Electronic density on regular grids:         -7.9999999881        0.0000000119
  Core density on regular grids:                7.9999999998       -0.0000000002
  Total charge density on r-space grids:        0.0000000116
  Total charge density g-space grids:           0.0000000116

  Overlap energy of the core charge distribution:               0.00000002751640
  Self energy of the core charge distribution:                -44.34715499673765
  Core Hamiltonian energy:                                     12.83746637298220
  Hartree energy:                                              18.49995527922054
  Exchange-correlation energy:                                 -4.20947376230908
  Dispersion energy:                                           -0.00000378016289

  Total energy:                                               -17.21921085949048

  outer SCF iter =    1 RMS gradient =   0.53E-06 energy =        -17.2192108595
  outer SCF loop converged in   1 iterations or    5 steps


 MOMENTS
  The electric/magnetic moments are written to file:
  water_dimer_dipole.out


 ENERGY| Total FORCE_EVAL ( QS ) energy (a.u.):              -17.219210859491472


 Temperature scaled to requested temperature:    152.25 K  ->    152.27 K
 MD| Old VCOM =    -0.0000021355    0.0000001785    0.0000006908 a.u.
 MD| New VCOM =     0.0000000000   -0.0000000000    0.0000000000 a.u
 MD| Old VANG =     0.0000000008   -0.0000015220   -0.0000000603 a.u.
 MD| New VANG =     0.0000000000    0.0000000000   -0.0000000000 a.u

 *******************************************************************************
 ENSEMBLE TYPE                =                                              NVT
 STEP NUMBER                  =                                                7
 TIME [fs]                    =                                         3.500000
 CONSERVED QUANTITY [hartree] =                              -0.172183161743E+02

                                              INSTANTANEOUS             AVERAGES
 CPU TIME [s]                 =                       40.45                52.31
 ENERGY DRIFT PER ATOM [K]    =          0.139311149754E+00  -0.113726663178E+00
 POTENTIAL ENERGY[hartree]    =         -0.172192108595E+02  -0.172194209619E+02
 KINETIC ENERGY [hartree]     =          0.723312863553E-03   0.900855392002E-03
 TEMPERATURE [K]              =                     152.269              189.645
 *******************************************************************************


 Number of electrons:                                                          8
 Number of occupied orbitals:                                                  4
 Number of molecular orbitals:                                                 4

 Number of orbital functions:                                                 23
 Number of independent orbital functions:                                     23

 Extrapolation method: ASPC


 SCF WAVEFUNCTION OPTIMIZATION

  ----------------------------------- OT ---------------------------------------
  Minimizer      : DIIS                : direct inversion
                                         in the iterative subspace
                                         using   7 DIIS vectors
                                         safer DIIS on
  Preconditioner : FULL_ALL            : diagonalization, state selective
  Precond_solver : DEFAULT
  stepsize       :    0.15000000                  energy_gap     :    0.08000000
  eps_taylor     :   0.10000E-15                  max_taylor     :             4
  ----------------------------------- OT ---------------------------------------

  Step     Update method      Time    Convergence         Total energy    Change
  ------------------------------------------------------------------------------
     1 OT DIIS     0.15E+00    6.0     0.00008187       -17.2190904894 -1.72E+01
     2 OT DIIS     0.15E+00    6.6     0.00004410       -17.2190905339 -4.45E-08
     3 OT DIIS     0.15E+00    6.7     0.00001834       -17.2190905431 -9.21E-09
     4 OT DIIS     0.15E+00    6.7     0.00000138       -17.2190905456 -2.49E-09
     5 OT DIIS     0.15E+00    6.7     0.00000023       -17.2190905456 -1.74E-11

  *** SCF run converged in     5 steps ***


  Electronic density on regular grids:         -7.9999999856        0.0000000144
  Core density on regular grids:                7.9999999998       -0.0000000002
  Total charge density on r-space grids:        0.0000000142
  Total charge density g-space grids:           0.0000000142

  Overlap energy of the core charge distribution:               0.00000002610736
  Self energy of the core charge distribution:                -44.34715499673765
  Core Hamiltonian energy:                                     12.83358351698330
  Hartree energy:                                              18.50294765353629
  Exchange-correlation energy:                                 -4.20846306925135
  Dispersion energy:                                           -0.00000367626018

  Total energy:                                               -17.21909054562223

  outer SCF iter =    1 RMS gradient =   0.23E-06 energy =        -17.2190905456
  outer SCF loop converged in   1 iterations or    5 steps


 MOMENTS
  The electric/magnetic moments are written to file:
  water_dimer_dipole.out


 ENERGY| Total FORCE_EVAL ( QS ) energy (a.u.):              -17.219090545622581


 Temperature scaled to requested temperature:    142.66 K  ->    142.68 K
 MD| Old VCOM =    -0.0000023427    0.0000002294    0.0000007203 a.u.
 MD| New VCOM =    -0.0000000000    0.0000000000    0.0000000000 a.u
 MD| Old VANG =     0.0000000021   -0.0000016840   -0.0000000857 a.u.
 MD| New VANG =     0.0000000000    0.0000000000    0.0000000000 a.u

 *******************************************************************************
 ENSEMBLE TYPE                =                                              NVT
 STEP NUMBER                  =                                                8
 TIME [fs]                    =                                         4.000000
 CONSERVED QUANTITY [hartree] =                              -0.172183154245E+02

                                              INSTANTANEOUS             AVERAGES
 CPU TIME [s]                 =                       40.54                50.84
 ENERGY DRIFT PER ATOM [K]    =          0.218228040285E+00  -0.722323252450E-01
 POTENTIAL ENERGY[hartree]    =         -0.172190905456E+02  -0.172193796599E+02
 KINETIC ENERGY [hartree]     =          0.677746402154E-03   0.872966768271E-03
 TEMPERATURE [K]              =                     142.677              183.774
 *******************************************************************************


 Number of electrons:                                                          8
 Number of occupied orbitals:                                                  4
 Number of molecular orbitals:                                                 4

 Number of orbital functions:                                                 23
 Number of independent orbital functions:                                     23

 Extrapolation method: ASPC


 SCF WAVEFUNCTION OPTIMIZATION

  ----------------------------------- OT ---------------------------------------
  Minimizer      : DIIS                : direct inversion
                                         in the iterative subspace
                                         using   7 DIIS vectors
                                         safer DIIS on
  Preconditioner : FULL_ALL            : diagonalization, state selective
  Precond_solver : DEFAULT
  stepsize       :    0.15000000                  energy_gap     :    0.08000000
  eps_taylor     :   0.10000E-15                  max_taylor     :             4
  ----------------------------------- OT ---------------------------------------

  Step     Update method      Time    Convergence         Total energy    Change
  ------------------------------------------------------------------------------
     1 OT DIIS     0.15E+00    5.7     0.00016610       -17.2189903407 -1.72E+01
     2 OT DIIS     0.15E+00    6.6     0.00009043       -17.2189905335 -1.93E-07
     3 OT DIIS     0.15E+00    6.7     0.00003991       -17.2189905742 -4.07E-08
     4 OT DIIS     0.15E+00    6.6     0.00000155       -17.2189905863 -1.21E-08
     5 OT DIIS     0.15E+00    6.6     0.00000037       -17.2189905863 -2.46E-11

  *** SCF run converged in     5 steps ***


  Electronic density on regular grids:         -7.9999999838        0.0000000162
  Core density on regular grids:                7.9999999998       -0.0000000002
  Total charge density on r-space grids:        0.0000000160
  Total charge density g-space grids:           0.0000000159

  Overlap energy of the core charge distribution:               0.00000002623172
  Self energy of the core charge distribution:                -44.34715499673765
  Core Hamiltonian energy:                                     12.83383651142634
  Hartree energy:                                              18.50294453637469
  Exchange-correlation energy:                                 -4.20861310749968
  Dispersion energy:                                           -0.00000355612336

  Total energy:                                               -17.21899058632794

  outer SCF iter =    1 RMS gradient =   0.37E-06 energy =        -17.2189905863
  outer SCF loop converged in   1 iterations or    5 steps


 MOMENTS
  The electric/magnetic moments are written to file:
  water_dimer_dipole.out


 ENERGY| Total FORCE_EVAL ( QS ) energy (a.u.):              -17.218990586331692


 Temperature scaled to requested temperature:    111.90 K  ->    111.93 K
 MD| Old VCOM =    -0.0000024325    0.0000002678    0.0000007166 a.u.
 MD| New VCOM =    -0.0000000000    0.0000000000    0.0000000000 a.u
 MD| Old VANG =    -0.0000000028   -0.0000017624   -0.0000001020 a.u.
 MD| New VANG =    -0.0000000000   -0.0000000000   -0.0000000000 a.u

 *******************************************************************************
 ENSEMBLE TYPE                =                                              NVT
 STEP NUMBER                  =                                                9
 TIME [fs]                    =                                         4.500000
 CONSERVED QUANTITY [hartree] =                              -0.172183153544E+02

                                              INSTANTANEOUS             AVERAGES
 CPU TIME [s]                 =                       40.31                49.67
 ENERGY DRIFT PER ATOM [K]    =          0.225614107605E+00  -0.391382771505E-01
 POTENTIAL ENERGY[hartree]    =         -0.172189905863E+02  -0.172193364295E+02
 KINETIC ENERGY [hartree]     =          0.531671067456E-03   0.835045023736E-03
 TEMPERATURE [K]              =                     111.925              175.791
 *******************************************************************************


 Number of electrons:                                                          8
 Number of occupied orbitals:                                                  4
 Number of molecular orbitals:                                                 4

 Number of orbital functions:                                                 23
 Number of independent orbital functions:                                     23

 Extrapolation method: ASPC


 SCF WAVEFUNCTION OPTIMIZATION

  ----------------------------------- OT ---------------------------------------
  Minimizer      : DIIS                : direct inversion
                                         in the iterative subspace
                                         using   7 DIIS vectors
                                         safer DIIS on
  Preconditioner : FULL_ALL            : diagonalization, state selective
  Precond_solver : DEFAULT
  stepsize       :    0.15000000                  energy_gap     :    0.08000000
  eps_taylor     :   0.10000E-15                  max_taylor     :             4
  ----------------------------------- OT ---------------------------------------

  Step     Update method      Time    Convergence         Total energy    Change
  ------------------------------------------------------------------------------
     1 OT DIIS     0.15E+00    5.7     0.00012697       -17.2188971322 -1.72E+01
     2 OT DIIS     0.15E+00    6.6     0.00006562       -17.2188972442 -1.12E-07
     3 OT DIIS     0.15E+00    6.6     0.00002953       -17.2188972652 -2.10E-08
     4 OT DIIS     0.15E+00    6.6     0.00000233       -17.2188972714 -6.15E-09
     5 OT DIIS     0.15E+00    6.6     0.00000035       -17.2188972715 -5.64E-11

  *** SCF run converged in     5 steps ***


  Electronic density on regular grids:         -7.9999999827        0.0000000173
  Core density on regular grids:                7.9999999998       -0.0000000002
  Total charge density on r-space grids:        0.0000000171
  Total charge density g-space grids:           0.0000000171

  Overlap energy of the core charge distribution:               0.00000002794314
  Self energy of the core charge distribution:                -44.34715499673765
  Core Hamiltonian energy:                                     12.83823105791002
  Hartree energy:                                              18.49996444379773
  Exchange-correlation energy:                                 -4.20993439428020
  Dispersion energy:                                           -0.00000341008481

  Total energy:                                               -17.21889727145177

  outer SCF iter =    1 RMS gradient =   0.35E-06 energy =        -17.2188972715
  outer SCF loop converged in   1 iterations or    5 steps


 MOMENTS
  The electric/magnetic moments are written to file:
  water_dimer_dipole.out


 ENERGY| Total FORCE_EVAL ( QS ) energy (a.u.):              -17.218897271452605


 Temperature scaled to requested temperature:     82.47 K  ->     82.49 K
 MD| Old VCOM =    -0.0000021271    0.0000002556    0.0000006057 a.u.
 MD| New VCOM =     0.0000000000   -0.0000000000    0.0000000000 a.u
 MD| Old VANG =    -0.0000000085   -0.0000015493   -0.0000000952 a.u.
 MD| New VANG =     0.0000000000   -0.0000000000    0.0000000000 a.u

 *******************************************************************************
 ENSEMBLE TYPE                =                                              NVT
 STEP NUMBER                  =                                               10
 TIME [fs]                    =                                         5.000000
 CONSERVED QUANTITY [hartree] =                              -0.172183157282E+02

                                              INSTANTANEOUS             AVERAGES
 CPU TIME [s]                 =                       40.35                48.74
 ENERGY DRIFT PER ATOM [K]    =          0.186259786741E+00  -0.165984707613E-01
 POTENTIAL ENERGY[hartree]    =         -0.172188972715E+02  -0.172192925137E+02
 KINETIC ENERGY [hartree]     =          0.391850686555E-03   0.790725590018E-03
 TEMPERATURE [K]              =                      82.491              166.461
 *******************************************************************************


 Number of electrons:                                                          8
 Number of occupied orbitals:                                                  4
 Number of molecular orbitals:                                                 4

 Number of orbital functions:                                                 23
 Number of independent orbital functions:                                     23

 Extrapolation method: ASPC


 SCF WAVEFUNCTION OPTIMIZATION

  ----------------------------------- OT ---------------------------------------
  Minimizer      : DIIS                : direct inversion
                                         in the iterative subspace
                                         using   7 DIIS vectors
                                         safer DIIS on
  Preconditioner : FULL_ALL            : diagonalization, state selective
  Precond_solver : DEFAULT
  stepsize       :    0.15000000                  energy_gap     :    0.08000000
  eps_taylor     :   0.10000E-15                  max_taylor     :             4
  ----------------------------------- OT ---------------------------------------

  Step     Update method      Time    Convergence         Total energy    Change
  ------------------------------------------------------------------------------
     1 OT DIIS     0.15E+00    5.7     0.00022438       -17.2188209632 -1.72E+01
     2 OT DIIS     0.15E+00    6.6     0.00008746       -17.2188214354 -4.72E-07
     3 OT DIIS     0.15E+00    6.6     0.00003347       -17.2188215145 -7.91E-08
     4 OT DIIS     0.15E+00    6.6     0.00000395       -17.2188215194 -4.90E-09
     5 OT DIIS     0.15E+00    6.7     0.00000074       -17.2188215195 -1.01E-10

  *** SCF run converged in     5 steps ***


  Electronic density on regular grids:         -7.9999999823        0.0000000177
  Core density on regular grids:                7.9999999998       -0.0000000002
  Total charge density on r-space grids:        0.0000000175
  Total charge density g-space grids:           0.0000000175

  Overlap energy of the core charge distribution:               0.00000003088106
  Self energy of the core charge distribution:                -44.34715499673765
  Core Hamiltonian energy:                                     12.84546058930420
  Hartree energy:                                              18.49491766695200
  Exchange-correlation energy:                                 -4.21204153798137
  Dispersion energy:                                           -0.00000327191775

  Total energy:                                               -17.21882151949952

  outer SCF iter =    1 RMS gradient =   0.74E-06 energy =        -17.2188215195
  outer SCF loop converged in   1 iterations or    5 steps


 MOMENTS
  The electric/magnetic moments are written to file:
  water_dimer_dipole.out


 ENERGY| Total FORCE_EVAL ( QS ) energy (a.u.):              -17.218821519505184


 Temperature scaled to requested temperature:     68.33 K  ->     68.35 K
 MD| Old VCOM =    -0.0000023721    0.0000003022    0.0000006602 a.u.
 MD| New VCOM =     0.0000000000   -0.0000000000    0.0000000000 a.u
 MD| Old VANG =    -0.0000000150   -0.0000017351   -0.0000001103 a.u.
 MD| New VANG =    -0.0000000000    0.0000000000   -0.0000000000 a.u

 *******************************************************************************
 ENSEMBLE TYPE                =                                              NVT
 STEP NUMBER                  =                                               11
 TIME [fs]                    =                                         5.500000
 CONSERVED QUANTITY [hartree] =                              -0.172183160354E+02

                                              INSTANTANEOUS             AVERAGES
 CPU TIME [s]                 =                       40.24                47.96
 ENERGY DRIFT PER ATOM [K]    =          0.153929782210E+00  -0.109590230944E-02
 POTENTIAL ENERGY[hartree]    =         -0.172188215195E+02  -0.172192496960E+02
 KINETIC ENERGY [hartree]     =          0.324689935522E-03   0.748358712337E-03
 TEMPERATURE [K]              =                      68.353              157.542
 *******************************************************************************


 Number of electrons:                                                          8
 Number of occupied orbitals:                                                  4
 Number of molecular orbitals:                                                 4

 Number of orbital functions:                                                 23
 Number of independent orbital functions:                                     23

 Extrapolation method: ASPC


 SCF WAVEFUNCTION OPTIMIZATION

  ----------------------------------- OT ---------------------------------------
  Minimizer      : DIIS                : direct inversion
                                         in the iterative subspace
                                         using   7 DIIS vectors
                                         safer DIIS on
  Preconditioner : FULL_ALL            : diagonalization, state selective
  Precond_solver : DEFAULT
  stepsize       :    0.15000000                  energy_gap     :    0.08000000
  eps_taylor     :   0.10000E-15                  max_taylor     :             4
  ----------------------------------- OT ---------------------------------------

  Step     Update method      Time    Convergence         Total energy    Change
  ------------------------------------------------------------------------------
     1 OT DIIS     0.15E+00    5.8     0.00006208       -17.2187608994 -1.72E+01
     2 OT DIIS     0.15E+00    6.7     0.00003318       -17.2187609250 -2.56E-08
     3 OT DIIS     0.15E+00    6.6     0.00001384       -17.2187609303 -5.25E-09
     4 OT DIIS     0.15E+00    6.8     0.00000106       -17.2187609317 -1.42E-09
     5 OT DIIS     0.15E+00    6.6     0.00000017       -17.2187609317 -1.16E-11

  *** SCF run converged in     5 steps ***


  Electronic density on regular grids:         -7.9999999824        0.0000000176
  Core density on regular grids:                7.9999999998       -0.0000000002
  Total charge density on r-space grids:        0.0000000174
  Total charge density g-space grids:           0.0000000174

  Overlap energy of the core charge distribution:               0.00000003485839
  Self energy of the core charge distribution:                -44.34715499673765
  Core Hamiltonian energy:                                     12.85477557581460
  Hartree energy:                                              18.48834561054390
  Exchange-correlation energy:                                 -4.21472401167666
  Dispersion energy:                                           -0.00000314449575

  Total energy:                                               -17.21876093169318

  outer SCF iter =    1 RMS gradient =   0.17E-06 energy =        -17.2187609317
  outer SCF loop converged in   1 iterations or    5 steps


 MOMENTS
  The electric/magnetic moments are written to file:
  water_dimer_dipole.out


 ENERGY| Total FORCE_EVAL ( QS ) energy (a.u.):              -17.218760931694689


 Temperature scaled to requested temperature:     60.33 K  ->     60.36 K
 MD| Old VCOM =    -0.0000026178    0.0000003422    0.0000007221 a.u.
 MD| New VCOM =     0.0000000000    0.0000000000    0.0000000000 a.u
 MD| Old VANG =    -0.0000000197   -0.0000019200   -0.0000001243 a.u.
 MD| New VANG =     0.0000000000    0.0000000000   -0.0000000000 a.u

 *******************************************************************************
 ENSEMBLE TYPE                =                                              NVT
 STEP NUMBER                  =                                               12
 TIME [fs]                    =                                         6.000000
 CONSERVED QUANTITY [hartree] =                              -0.172183160386E+02

                                              INSTANTANEOUS             AVERAGES
 CPU TIME [s]                 =                       40.77                47.37
 ENERGY DRIFT PER ATOM [K]    =          0.153590582041E+00   0.117946380531E-01
 POTENTIAL ENERGY[hartree]    =         -0.172187609317E+02  -0.172192089657E+02
 KINETIC ENERGY [hartree]     =          0.286709391589E-03   0.709887935608E-03
 TEMPERATURE [K]              =                      60.357              149.443
 *******************************************************************************


 Number of electrons:                                                          8
 Number of occupied orbitals:                                                  4
 Number of molecular orbitals:                                                 4

 Number of orbital functions:                                                 23
 Number of independent orbital functions:                                     23

 Extrapolation method: ASPC


 SCF WAVEFUNCTION OPTIMIZATION

  ----------------------------------- OT ---------------------------------------
  Minimizer      : DIIS                : direct inversion
                                         in the iterative subspace
                                         using   7 DIIS vectors
                                         safer DIIS on
  Preconditioner : FULL_ALL            : diagonalization, state selective
  Precond_solver : DEFAULT
  stepsize       :    0.15000000                  energy_gap     :    0.08000000
  eps_taylor     :   0.10000E-15                  max_taylor     :             4
  ----------------------------------- OT ---------------------------------------

  Step     Update method      Time    Convergence         Total energy    Change
  ------------------------------------------------------------------------------
     1 OT DIIS     0.15E+00    5.8     0.00013818       -17.2187014418 -1.72E+01
     2 OT DIIS     0.15E+00    6.7     0.00007248       -17.2187015767 -1.35E-07
     3 OT DIIS     0.15E+00    6.8     0.00003266       -17.2187016032 -2.65E-08
     4 OT DIIS     0.15E+00    6.8     0.00000180       -17.2187016110 -7.85E-09
     5 OT DIIS     0.15E+00    6.7     0.00000039       -17.2187016111 -3.45E-11

  *** SCF run converged in     5 steps ***


  Electronic density on regular grids:         -7.9999999830        0.0000000170
  Core density on regular grids:                7.9999999998       -0.0000000002
  Total charge density on r-space grids:        0.0000000168
  Total charge density g-space grids:           0.0000000168

  Overlap energy of the core charge distribution:               0.00000004027624
  Self energy of the core charge distribution:                -44.34715499673765
  Core Hamiltonian energy:                                     12.86669882453904
  Hartree energy:                                              18.47989103260849
  Exchange-correlation energy:                                 -4.21813349466444
  Dispersion energy:                                           -0.00000301710194

  Total energy:                                               -17.21870161108026

  outer SCF iter =    1 RMS gradient =   0.39E-06 energy =        -17.2187016111
  outer SCF loop converged in   1 iterations or    5 steps


 MOMENTS
  The electric/magnetic moments are written to file:
  water_dimer_dipole.out


 ENERGY| Total FORCE_EVAL ( QS ) energy (a.u.):              -17.218701611081670


 Temperature scaled to requested temperature:     51.16 K  ->     51.18 K
 MD| Old VCOM =    -0.0000023715    0.0000003091    0.0000006567 a.u.
 MD| New VCOM =     0.0000000000   -0.0000000000   -0.0000000000 a.u
 MD| Old VANG =    -0.0000000181   -0.0000017427   -0.0000001136 a.u.
 MD| New VANG =     0.0000000000   -0.0000000000   -0.0000000000 a.u

 *******************************************************************************
 ENSEMBLE TYPE                =                                              NVT
 STEP NUMBER                  =                                               13
 TIME [fs]                    =                                         6.500000
 CONSERVED QUANTITY [hartree] =                              -0.172183154367E+02

                                              INSTANTANEOUS             AVERAGES
 CPU TIME [s]                 =                       40.55                46.84
 ENERGY DRIFT PER ATOM [K]    =          0.216951839796E+00   0.275759612641E-01
 POTENTIAL ENERGY[hartree]    =         -0.172187016111E+02  -0.172191699384E+02
 KINETIC ENERGY [hartree]     =          0.243133704077E-03   0.673983763951E-03
 TEMPERATURE [K]              =                      51.184              141.885
 *******************************************************************************


 Number of electrons:                                                          8
 Number of occupied orbitals:                                                  4
 Number of molecular orbitals:                                                 4

 Number of orbital functions:                                                 23
 Number of independent orbital functions:                                     23

 Extrapolation method: ASPC


 SCF WAVEFUNCTION OPTIMIZATION

  ----------------------------------- OT ---------------------------------------
  Minimizer      : DIIS                : direct inversion
                                         in the iterative subspace
                                         using   7 DIIS vectors
                                         safer DIIS on
  Preconditioner : FULL_ALL            : diagonalization, state selective
  Precond_solver : DEFAULT
  stepsize       :    0.15000000                  energy_gap     :    0.08000000
  eps_taylor     :   0.10000E-15                  max_taylor     :             4
  ----------------------------------- OT ---------------------------------------

  Step     Update method      Time    Convergence         Total energy    Change
  ------------------------------------------------------------------------------
     1 OT DIIS     0.15E+00    5.8     0.00024854       -17.2186577982 -1.72E+01
     2 OT DIIS     0.15E+00    6.7     0.00012155       -17.2186582496 -4.51E-07
     3 OT DIIS     0.15E+00    6.8     0.00005895       -17.2186583263 -7.66E-08
     4 OT DIIS     0.15E+00    6.6     0.00000469       -17.2186583498 -2.35E-08
     5 OT DIIS     0.15E+00    6.8     0.00000072       -17.2186583500 -2.26E-10

  *** SCF run converged in     5 steps ***


  Electronic density on regular grids:         -7.9999999837        0.0000000163
  Core density on regular grids:                7.9999999998       -0.0000000002
  Total charge density on r-space grids:        0.0000000160
  Total charge density g-space grids:           0.0000000160

  Overlap energy of the core charge distribution:               0.00000004570560
  Self energy of the core charge distribution:                -44.34715499673765
  Core Hamiltonian energy:                                     12.87798826342775
  Hartree energy:                                              18.47185457960618
  Exchange-correlation energy:                                 -4.22134332076199
  Dispersion energy:                                           -0.00000292127032

  Total energy:                                               -17.21865835003043

  outer SCF iter =    1 RMS gradient =   0.72E-06 energy =        -17.2186583500
  outer SCF loop converged in   1 iterations or    5 steps


 MOMENTS
  The electric/magnetic moments are written to file:
  water_dimer_dipole.out


 ENERGY| Total FORCE_EVAL ( QS ) energy (a.u.):              -17.218658350034431


 Temperature scaled to requested temperature:     32.53 K  ->     32.55 K
 MD| Old VCOM =    -0.0000021753    0.0000002757    0.0000006112 a.u.
 MD| New VCOM =     0.0000000000    0.0000000000    0.0000000000 a.u
 MD| Old VANG =    -0.0000000138   -0.0000016003   -0.0000001036 a.u.
 MD| New VANG =    -0.0000000000   -0.0000000000   -0.0000000000 a.u

 *******************************************************************************
 ENSEMBLE TYPE                =                                              NVT
 STEP NUMBER                  =                                               14
 TIME [fs]                    =                                         7.000000
 CONSERVED QUANTITY [hartree] =                              -0.172183143435E+02

                                              INSTANTANEOUS             AVERAGES
 CPU TIME [s]                 =                       40.75                46.41
 ENERGY DRIFT PER ATOM [K]    =          0.332015099858E+00   0.493216140208E-01
 POTENTIAL ENERGY[hartree]    =         -0.172186583500E+02  -0.172191333964E+02
 KINETIC ENERGY [hartree]     =          0.154612179950E-03   0.636885793666E-03
 TEMPERATURE [K]              =                      32.548              134.075
 *******************************************************************************


 Number of electrons:                                                          8
 Number of occupied orbitals:                                                  4
 Number of molecular orbitals:                                                 4

 Number of orbital functions:                                                 23
 Number of independent orbital functions:                                     23

 Extrapolation method: ASPC


 SCF WAVEFUNCTION OPTIMIZATION

  ----------------------------------- OT ---------------------------------------
  Minimizer      : DIIS                : direct inversion
                                         in the iterative subspace
                                         using   7 DIIS vectors
                                         safer DIIS on
  Preconditioner : FULL_ALL            : diagonalization, state selective
  Precond_solver : DEFAULT
  stepsize       :    0.15000000                  energy_gap     :    0.08000000
  eps_taylor     :   0.10000E-15                  max_taylor     :             4
  ----------------------------------- OT ---------------------------------------

  Step     Update method      Time    Convergence         Total energy    Change
  ------------------------------------------------------------------------------
     1 OT DIIS     0.15E+00    5.8     0.00011082       -17.2186563327 -1.72E+01
     2 OT DIIS     0.15E+00    6.7     0.00005680       -17.2186564171 -8.44E-08
     3 OT DIIS     0.15E+00    6.8     0.00002484       -17.2186564330 -1.59E-08
     4 OT DIIS     0.15E+00    6.5     0.00000206       -17.2186564374 -4.45E-09
     5 OT DIIS     0.15E+00    6.5     0.00000030       -17.2186564375 -4.70E-11

  *** SCF run converged in     5 steps ***


  Electronic density on regular grids:         -7.9999999845        0.0000000155
  Core density on regular grids:                7.9999999998       -0.0000000002
  Total charge density on r-space grids:        0.0000000152
  Total charge density g-space grids:           0.0000000152

  Overlap energy of the core charge distribution:               0.00000004980726
  Self energy of the core charge distribution:                -44.34715499673765
  Core Hamiltonian energy:                                     12.88639389579527
  Hartree energy:                                              18.46582698961200
  Exchange-correlation energy:                                 -4.22371950535831
  Dispersion energy:                                           -0.00000287059162

  Total energy:                                               -17.21865643747306

  outer SCF iter =    1 RMS gradient =   0.30E-06 energy =        -17.2186564375
  outer SCF loop converged in   1 iterations or    5 steps


 MOMENTS
  The electric/magnetic moments are written to file:
  water_dimer_dipole.out


 ENERGY| Total FORCE_EVAL ( QS ) energy (a.u.):              -17.218656437472589


 Temperature scaled to requested temperature:     34.47 K  ->     34.50 K
 MD| Old VCOM =    -0.0000025316    0.0000003065    0.0000007265 a.u.
 MD| New VCOM =     0.0000000000   -0.0000000000   -0.0000000000 a.u
 MD| Old VANG =    -0.0000000095   -0.0000018622   -0.0000001174 a.u.
 MD| New VANG =    -0.0000000000    0.0000000000   -0.0000000000 a.u

 *******************************************************************************
 ENSEMBLE TYPE                =                                              NVT
 STEP NUMBER                  =                                               15
 TIME [fs]                    =                                         7.500000
 CONSERVED QUANTITY [hartree] =                              -0.172183136175E+02

                                              INSTANTANEOUS             AVERAGES
 CPU TIME [s]                 =                       40.45                46.01
 ENERGY DRIFT PER ATOM [K]    =          0.408430232650E+00   0.732621885960E-01
 POTENTIAL ENERGY[hartree]    =         -0.172186564375E+02  -0.172191015991E+02
 KINETIC ENERGY [hartree]     =          0.163877506229E-03   0.605351907837E-03
 TEMPERATURE [K]              =                      34.499              127.437
 *******************************************************************************


 Number of electrons:                                                          8
 Number of occupied orbitals:                                                  4
 Number of molecular orbitals:                                                 4

 Number of orbital functions:                                                 23
 Number of independent orbital functions:                                     23

 Extrapolation method: ASPC


 SCF WAVEFUNCTION OPTIMIZATION

  ----------------------------------- OT ---------------------------------------
  Minimizer      : DIIS                : direct inversion
                                         in the iterative subspace
                                         using   7 DIIS vectors
                                         safer DIIS on
  Preconditioner : FULL_ALL            : diagonalization, state selective
  Precond_solver : DEFAULT
  stepsize       :    0.15000000                  energy_gap     :    0.08000000
  eps_taylor     :   0.10000E-15                  max_taylor     :             4
  ----------------------------------- OT ---------------------------------------

  Step     Update method      Time    Convergence         Total energy    Change
  ------------------------------------------------------------------------------
     1 OT DIIS     0.15E+00    5.9     0.00016417       -17.2187079919 -1.72E+01
     2 OT DIIS     0.15E+00    6.7     0.00007029       -17.2187082296 -2.38E-07
     3 OT DIIS     0.15E+00    6.7     0.00004158       -17.2187082666 -3.70E-08
     4 OT DIIS     0.15E+00    6.7     0.00000204       -17.2187082758 -9.22E-09
     5 OT DIIS     0.15E+00    6.7     0.00000057       -17.2187082758 -3.84E-11

  *** SCF run converged in     5 steps ***


  Electronic density on regular grids:         -7.9999999856        0.0000000144
  Core density on regular grids:                7.9999999998       -0.0000000002
  Total charge density on r-space grids:        0.0000000142
  Total charge density g-space grids:           0.0000000142

  Overlap energy of the core charge distribution:               0.00000005304726
  Self energy of the core charge distribution:                -44.34715499673765
  Core Hamiltonian energy:                                     12.89315637252311
  Hartree energy:                                              18.46090554373950
[...]
 KINETIC ENERGY [hartree]     =          0.385444822861E-02   0.103371336103E-02
 TEMPERATURE [K]              =                     811.425              217.614
 *******************************************************************************


 Number of electrons:                                                          8
 Number of occupied orbitals:                                                  4
 Number of molecular orbitals:                                                 4

 Number of orbital functions:                                                 23
 Number of independent orbital functions:                                     23

 Extrapolation method: ASPC


 SCF WAVEFUNCTION OPTIMIZATION

  ----------------------------------- OT ---------------------------------------
  Minimizer      : DIIS                : direct inversion
                                         in the iterative subspace
                                         using   7 DIIS vectors
                                         safer DIIS on
  Preconditioner : FULL_ALL            : diagonalization, state selective
  Precond_solver : DEFAULT
  stepsize       :    0.15000000                  energy_gap     :    0.08000000
  eps_taylor     :   0.10000E-15                  max_taylor     :             4
  ----------------------------------- OT ---------------------------------------

  Step     Update method      Time    Convergence         Total energy    Change
  ------------------------------------------------------------------------------
     1 OT DIIS     0.15E+00    8.1     0.00023171       -17.2191863884 -1.72E+01
     2 OT DIIS     0.15E+00    9.7     0.00009901       -17.2191868364 -4.48E-07
     3 OT DIIS     0.15E+00    8.3     0.00005713       -17.2191869010 -6.46E-08
     4 OT DIIS     0.15E+00    7.1     0.00000441       -17.2191869197 -1.88E-08
     5 OT DIIS     0.15E+00    6.1     0.00000091       -17.2191869199 -1.84E-10

  *** SCF run converged in     5 steps ***


  Electronic density on regular grids:         -7.9999999903        0.0000000097
  Core density on regular grids:                7.9999999997       -0.0000000003
  Total charge density on r-space grids:        0.0000000095
  Total charge density g-space grids:           0.0000000094

  Overlap energy of the core charge distribution:               0.00000005755457
  Self energy of the core charge distribution:                -44.34715499673765
  Core Hamiltonian energy:                                     12.89185402542763
  Hartree energy:                                              18.46057394959739
  Exchange-correlation energy:                                 -4.22445619440298
  Dispersion energy:                                           -0.00000376135551

  Total energy:                                               -17.21918691991655

  outer SCF iter =    1 RMS gradient =   0.91E-06 energy =        -17.2191869199
  outer SCF loop converged in   1 iterations or    5 steps


 MOMENTS
  The electric/magnetic moments are written to file:
  water_dimer_dipole.out


 ENERGY| Total FORCE_EVAL ( QS ) energy (a.u.):              -17.219186919922592


 Temperature scaled to requested temperature:    780.58 K  ->    780.60 K
 MD| Old VCOM =    -0.0000021041    0.0000001074    0.0000008395 a.u.
 MD| New VCOM =    -0.0000000000   -0.0000000000    0.0000000000 a.u
 MD| Old VANG =    -0.0000001061   -0.0000014690    0.0000000141 a.u.
 MD| New VANG =     0.0000000000   -0.0000000000   -0.0000000000 a.u

 *******************************************************************************
 ENSEMBLE TYPE                =                                              NVT
 STEP NUMBER                  =                                              211
 TIME [fs]                    =                                       105.500000
 CONSERVED QUANTITY [hartree] =                              -0.172183068309E+02

                                              INSTANTANEOUS             AVERAGES
 CPU TIME [s]                 =                       50.52                56.90
 ENERGY DRIFT PER ATOM [K]    =          0.112277849030E+01   0.859136821132E+00
 POTENTIAL ENERGY[hartree]    =         -0.172191869199E+02  -0.172186054581E+02
 KINETIC ENERGY [hartree]     =          0.370803365634E-02   0.104638786480E-02
 TEMPERATURE [K]              =                     780.602              220.282
 *******************************************************************************


 Number of electrons:                                                          8
 Number of occupied orbitals:                                                  4
 Number of molecular orbitals:                                                 4

 Number of orbital functions:                                                 23
 Number of independent orbital functions:                                     23

 Extrapolation method: ASPC


 SCF WAVEFUNCTION OPTIMIZATION

  ----------------------------------- OT ---------------------------------------
  Minimizer      : DIIS                : direct inversion
                                         in the iterative subspace
                                         using   7 DIIS vectors
                                         safer DIIS on
  Preconditioner : FULL_ALL            : diagonalization, state selective
  Precond_solver : DEFAULT
  stepsize       :    0.15000000                  energy_gap     :    0.08000000
  eps_taylor     :   0.10000E-15                  max_taylor     :             4
  ----------------------------------- OT ---------------------------------------

  Step     Update method      Time    Convergence         Total energy    Change
  ------------------------------------------------------------------------------
     1 OT DIIS     0.15E+00    7.2     0.00025030       -17.2187975317 -1.72E+01
     2 OT DIIS     0.15E+00   12.1     0.00011428       -17.2187980283 -4.97E-07
     3 OT DIIS     0.15E+00   10.6     0.00006141       -17.2187981054 -7.71E-08
     4 OT DIIS     0.15E+00    9.2     0.00000431       -17.2187981293 -2.39E-08
     5 OT DIIS     0.15E+00   18.8     0.00000089       -17.2187981295 -1.86E-10

  *** SCF run converged in     5 steps ***


  Electronic density on regular grids:         -7.9999999855        0.0000000145
  Core density on regular grids:                7.9999999997       -0.0000000003
  Total charge density on r-space grids:        0.0000000142
  Total charge density g-space grids:           0.0000000142

  Overlap energy of the core charge distribution:               0.00000007335580
  Self energy of the core charge distribution:                -44.34715499673765
  Core Hamiltonian energy:                                     12.91170771993408
  Hartree energy:                                              18.44693954786328
  Exchange-correlation energy:                                 -4.23028718677715
  Dispersion energy:                                           -0.00000328715087

  Total energy:                                               -17.21879812951251

  outer SCF iter =    1 RMS gradient =   0.89E-06 energy =        -17.2187981295
  outer SCF loop converged in   1 iterations or    5 steps


 MOMENTS
  The electric/magnetic moments are written to file:
  water_dimer_dipole.out


 ENERGY| Total FORCE_EVAL ( QS ) energy (a.u.):              -17.218798129520348


 Temperature scaled to requested temperature:    770.43 K  ->    770.45 K
 MD| Old VCOM =    -0.0000023155    0.0000001305    0.0000008819 a.u.
 MD| New VCOM =     0.0000000000   -0.0000000000   -0.0000000000 a.u
 MD| Old VANG =    -0.0000001033   -0.0000015832   -0.0000000226 a.u.
 MD| New VANG =    -0.0000000000    0.0000000000   -0.0000000000 a.u

 *******************************************************************************
 ENSEMBLE TYPE                =                                              NVT
 STEP NUMBER                  =                                              212
 TIME [fs]                    =                                       106.000000
 CONSERVED QUANTITY [hartree] =                              -0.172182952820E+02

                                              INSTANTANEOUS             AVERAGES
 CPU TIME [s]                 =                       67.76                56.96
 ENERGY DRIFT PER ATOM [K]    =          0.233839661387E+01   0.866114461664E+00
 POTENTIAL ENERGY[hartree]    =         -0.172187981295E+02  -0.172186063669E+02
 KINETIC ENERGY [hartree]     =          0.365979328371E-02   0.105871524885E-02
 TEMPERATURE [K]              =                     770.447              222.877
 *******************************************************************************


 Number of electrons:                                                          8
 Number of occupied orbitals:                                                  4
 Number of molecular orbitals:                                                 4

 Number of orbital functions:                                                 23
 Number of independent orbital functions:                                     23

 Extrapolation method: ASPC


 SCF WAVEFUNCTION OPTIMIZATION

  ----------------------------------- OT ---------------------------------------
  Minimizer      : DIIS                : direct inversion
                                         in the iterative subspace
                                         using   7 DIIS vectors
                                         safer DIIS on
  Preconditioner : FULL_ALL            : diagonalization, state selective
  Precond_solver : DEFAULT
  stepsize       :    0.15000000                  energy_gap     :    0.08000000
  eps_taylor     :   0.10000E-15                  max_taylor     :             4
  ----------------------------------- OT ---------------------------------------

  Step     Update method      Time    Convergence         Total energy    Change
  ------------------------------------------------------------------------------
     1 OT DIIS     0.15E+00    7.3     0.00031106       -17.2183416946 -1.72E+01
     2 OT DIIS     0.15E+00    7.6     0.00014787       -17.2183424210 -7.26E-07
     3 OT DIIS     0.15E+00    7.5     0.00007328       -17.2183425404 -1.19E-07
     4 OT DIIS     0.15E+00   10.2     0.00000548       -17.2183425767 -3.63E-08
     5 OT DIIS     0.15E+00   13.1     0.00000101       -17.2183425770 -3.05E-10
     6 OT DIIS     0.15E+00    8.7     0.00000012       -17.2183425770 -1.32E-11

  *** SCF run converged in     6 steps ***


  Electronic density on regular grids:         -7.9999999807        0.0000000193
  Core density on regular grids:                7.9999999997       -0.0000000003
  Total charge density on r-space grids:        0.0000000190
  Total charge density g-space grids:           0.0000000190

  Overlap energy of the core charge distribution:               0.00000008405571
  Self energy of the core charge distribution:                -44.34715499673765
  Core Hamiltonian energy:                                     12.92553278158805
  Hartree energy:                                              18.43768172376091
  Exchange-correlation energy:                                 -4.23439925355729
  Dispersion energy:                                           -0.00000291611156

  Total energy:                                               -17.21834257700183

  outer SCF iter =    1 RMS gradient =   0.12E-06 energy =        -17.2183425770
  outer SCF loop converged in   1 iterations or    6 steps


 MOMENTS
  The electric/magnetic moments are written to file:
  water_dimer_dipole.out


 ENERGY| Total FORCE_EVAL ( QS ) energy (a.u.):              -17.218342577003128


 Temperature scaled to requested temperature:    630.75 K  ->    630.77 K
 MD| Old VCOM =    -0.0000023570    0.0000001623    0.0000008539 a.u.
 MD| New VCOM =     0.0000000000   -0.0000000000    0.0000000000 a.u
 MD| Old VANG =    -0.0000000689   -0.0000015988   -0.0000000448 a.u.
 MD| New VANG =     0.0000000000   -0.0000000000    0.0000000000 a.u

 *******************************************************************************
 ENSEMBLE TYPE                =                                              NVT
 STEP NUMBER                  =                                              213
 TIME [fs]                    =                                       106.500000
 CONSERVED QUANTITY [hartree] =                              -0.172182853805E+02

                                              INSTANTANEOUS             AVERAGES
 CPU TIME [s]                 =                       79.26                57.06
 ENERGY DRIFT PER ATOM [K]    =          0.338060568139E+01   0.877919584762E+00
 POTENTIAL ENERGY[hartree]    =         -0.172183425770E+02  -0.172186051285E+02
 KINETIC ENERGY [hartree]     =          0.299630377847E-02   0.106781190861E-02
 TEMPERATURE [K]              =                     630.771              224.792
 *******************************************************************************


 Number of electrons:                                                          8
 Number of occupied orbitals:                                                  4
 Number of molecular orbitals:                                                 4

 Number of orbital functions:                                                 23
 Number of independent orbital functions:                                     23

 Extrapolation method: ASPC


 SCF WAVEFUNCTION OPTIMIZATION

  ----------------------------------- OT ---------------------------------------
  Minimizer      : DIIS                : direct inversion
                                         in the iterative subspace
                                         using   7 DIIS vectors
                                         safer DIIS on
  Preconditioner : FULL_ALL            : diagonalization, state selective
  Precond_solver : DEFAULT
  stepsize       :    0.15000000                  energy_gap     :    0.08000000
  eps_taylor     :   0.10000E-15                  max_taylor     :             4
  ----------------------------------- OT ---------------------------------------

  Step     Update method      Time    Convergence         Total energy    Change
  ------------------------------------------------------------------------------
     1 OT DIIS     0.15E+00   13.6     0.00030758       -17.2179411547 -1.72E+01
     2 OT DIIS     0.15E+00    9.5     0.00014896       -17.2179418628 -7.08E-07
     3 OT DIIS     0.15E+00   13.6     0.00007287       -17.2179419838 -1.21E-07
     4 OT DIIS     0.15E+00   10.1     0.00000478       -17.2179420206 -3.68E-08
     5 OT DIIS     0.15E+00    8.6     0.00000095       -17.2179420208 -2.32E-10

  *** SCF run converged in     5 steps ***


  Electronic density on regular grids:         -7.9999999757        0.0000000243
  Core density on regular grids:                7.9999999997       -0.0000000003
  Total charge density on r-space grids:        0.0000000241
  Total charge density g-space grids:           0.0000000240

  Overlap energy of the core charge distribution:               0.00000008587021
  Self energy of the core charge distribution:                -44.34715499673765
  Core Hamiltonian energy:                                     12.93143675770451
  Hartree energy:                                              18.43406196901120
  Exchange-correlation energy:                                 -4.23628320305256
  Dispersion energy:                                           -0.00000263362601

  Total energy:                                               -17.21794202083029

  outer SCF iter =    1 RMS gradient =   0.95E-06 energy =        -17.2179420208
  outer SCF loop converged in   1 iterations or    5 steps


 MOMENTS
  The electric/magnetic moments are written to file:
  water_dimer_dipole.out


 ENERGY| Total FORCE_EVAL ( QS ) energy (a.u.):              -17.217942020842614


 Temperature scaled to requested temperature:    562.72 K  ->    562.74 K
 MD| Old VCOM =    -0.0000023672    0.0000002093    0.0000008101 a.u.
 MD| New VCOM =     0.0000000000    0.0000000000   -0.0000000000 a.u
 MD| Old VANG =    -0.0000000231   -0.0000016125   -0.0000000591 a.u.
 MD| New VANG =    -0.0000000000   -0.0000000000    0.0000000000 a.u

 *******************************************************************************
 ENSEMBLE TYPE                =                                              NVT
 STEP NUMBER                  =                                              214
 TIME [fs]                    =                                       107.000000
 CONSERVED QUANTITY [hartree] =                              -0.172182823125E+02

                                              INSTANTANEOUS             AVERAGES
 CPU TIME [s]                 =                       66.19                57.10
 ENERGY DRIFT PER ATOM [K]    =          0.370354348995E+01   0.891123434786E+00
 POTENTIAL ENERGY[hartree]    =         -0.172179420208E+02  -0.172186020298E+02
 KINETIC ENERGY [hartree]     =          0.267316164436E-02   0.107531354289E-02
 TEMPERATURE [K]              =                     562.744              226.371
 *******************************************************************************


 Number of electrons:                                                          8
 Number of occupied orbitals:                                                  4
 Number of molecular orbitals:                                                 4

 Number of orbital functions:                                                 23
 Number of independent orbital functions:                                     23

 Extrapolation method: ASPC


 SCF WAVEFUNCTION OPTIMIZATION

  ----------------------------------- OT ---------------------------------------
  Minimizer      : DIIS                : direct inversion
                                         in the iterative subspace
                                         using   7 DIIS vectors
                                         safer DIIS on
  Preconditioner : FULL_ALL            : diagonalization, state selective
  Precond_solver : DEFAULT
  stepsize       :    0.15000000                  energy_gap     :    0.08000000
  eps_taylor     :   0.10000E-15                  max_taylor     :             4
  ----------------------------------- OT ---------------------------------------

  Step     Update method      Time    Convergence         Total energy    Change
  ------------------------------------------------------------------------------
     1 OT DIIS     0.15E+00    8.5     0.00034960       -17.2176599586 -1.72E+01
     2 OT DIIS     0.15E+00   19.0     0.00016540       -17.2176608511 -8.93E-07
     3 OT DIIS     0.15E+00    9.1     0.00008006       -17.2176609951 -1.44E-07
     4 OT DIIS     0.15E+00    7.3     0.00000749       -17.2176610383 -4.33E-08
     5 OT DIIS     0.15E+00    9.2     0.00000087       -17.2176610389 -5.82E-10

  *** SCF run converged in     5 steps ***


  Electronic density on regular grids:         -7.9999999707        0.0000000293
  Core density on regular grids:                7.9999999997       -0.0000000003
  Total charge density on r-space grids:        0.0000000290
  Total charge density g-space grids:           0.0000000289

  Overlap energy of the core charge distribution:               0.00000007913708
  Self energy of the core charge distribution:                -44.34715499673765
  Core Hamiltonian energy:                                     12.92790524291893
  Hartree energy:                                              18.43708082616997
  Exchange-correlation energy:                                 -4.23548973905869
  Dispersion energy:                                           -0.00000245131923

  Total energy:                                               -17.21766103888960
