 DBCSR| Multiplication driver                                               BLAS
 DBCSR| Multrec recursion limit                                              512
 DBCSR| Multiplication stack size                                           1000
 DBCSR| Maximum elements for images                                    UNLIMITED
 DBCSR| Multiplicative factor virtual images                                   1
 DBCSR| Multiplication size stacks                                             3


  **** **** ******  **  PROGRAM STARTED AT               2020-05-18 23:44:14.872
 ***** ** ***  *** **   PROGRAM STARTED ON                                 sheep
 **    ****   ******    PROGRAM STARTED BY                                 sim03
 ***** **    ** ** **   PROGRAM PROCESS ID                               3456563
  **** **  *******  **  PROGRAM STARTED IN /auto.eland/home/sim03/Documents/SimP
                                           hys/Summer/2/cp2k/MONOMER_MD_TEST_300
                                           K

 CP2K| version string:                                          CP2K version 5.1
 CP2K| source code revision number:                                    svn:18091
 CP2K| cp2kflags: fftw3 max_contr=4                                             
 CP2K| is freely available from                            https://www.cp2k.org/
 CP2K| Program compiled at                         Thu May  9 16:52:28 CEST 2019
 CP2K| Program compiled on                                                  cip0
 CP2K| Program compiled for                                                 icp2
 CP2K| Data directory path          /auto.eland/group/allatom/cp2k/cp2k-5.1/data
 CP2K| Input file name                                      water_monomer_md.inp

 GLOBAL| Force Environment number                                              1
 GLOBAL| Basis set file name                                      ./BASIS_MOLOPT
 GLOBAL| Potential file name                                    ./GTH_POTENTIALS
 GLOBAL| MM Potential file name                                     MM_POTENTIAL
 GLOBAL| Coordinate file name                                  water-monomer.xyz
 GLOBAL| Method name                                                        CP2K
 GLOBAL| Project name                                             water_dimer_md
 GLOBAL| Preferred FFT library                                             FFTW3
 GLOBAL| Preferred diagonalization lib.                                       SL
 GLOBAL| Run type                                                             MD
 GLOBAL| All-to-all communication in single precision                          F
 GLOBAL| FFTs using library dependent lengths                                  F
 GLOBAL| Global print level                                                  LOW
 GLOBAL| Total number of message passing processes                             1
 GLOBAL| Number of threads for this process                                    1
 GLOBAL| This output is from process                                           0
 GLOBAL| CPU model name :  Intel(R) Core(TM) i7-3930K CPU @ 3.20GHz

 MEMORY| system memory details [Kb]
 MEMORY|                        rank 0           min           max       average
 MEMORY| MemTotal              8112104       8112104       8112104       8112104
 MEMORY| MemFree                368940        368940        368940        368940
 MEMORY| Buffers                 77100         77100         77100         77100
 MEMORY| Cached                1111064       1111064       1111064       1111064
 MEMORY| Slab                   266264        266264        266264        266264
 MEMORY| SReclaimable           181708        181708        181708        181708
 MEMORY| MemLikelyFree         1738812       1738812       1738812       1738812


 GENERATE|  Preliminary Number of Bonds generated:                             0
 GENERATE|  Achieved consistency in connectivity generation.

 *******************************************************************************
 *******************************************************************************
 **                                                                           **
 **     #####                         ##              ##                      **
 **    ##   ##            ##          ##              ##                      **
 **   ##     ##                       ##            ######                    **
 **   ##     ##  ##   ##  ##   #####  ##  ##   ####   ##    #####    #####    **
 **   ##     ##  ##   ##  ##  ##      ## ##   ##      ##   ##   ##  ##   ##   **
 **   ##  ## ##  ##   ##  ##  ##      ####     ###    ##   ######   ######    **
 **    ##  ###   ##   ##  ##  ##      ## ##      ##   ##   ##       ##        **
 **     #######   #####   ##   #####  ##  ##  ####    ##    #####   ##        **
 **           ##                                                    ##        **
 **                                                                           **
 **                                                ... make the atoms dance   **
 **                                                                           **
 **            Copyright (C) by CP2K developers group (2000 - 2017)           **
 **                                                                           **
 *******************************************************************************


 SCF PARAMETERS         Density guess:                                    ATOMIC
                        --------------------------------------------------------
                        max_scf:                                              50
                        max_scf_history:                                       0
                        max_diis:                                              4
                        --------------------------------------------------------
                        eps_scf:                                        1.00E-06
                        eps_scf_history:                                0.00E+00
                        eps_diis:                                       1.00E-01
                        eps_eigval:                                     1.00E-05
                        --------------------------------------------------------
                        level_shift [a.u.]:                                 0.00
                        --------------------------------------------------------
                        Outer loop SCF in use 
                        No variables optimised in outer loop
                        eps_scf                                         1.00E-06
                        max_scf                                               50
                        No outer loop optimization
                        step_size                                       5.00E-01

 MD| Molecular Dynamics Protocol 
 MD| Ensemble Type                                                           NVT
 MD| Number of Time Steps                                                   2000
 MD| Time Step [fs]                                                         0.50
 MD| Temperature [K]                                                      300.00
 MD| Temperature tolerance [K]                                              0.00
 MD| Print MD information every                                        1 step(s)
 MD| File type     Print frequency[steps]                             File names
 MD| Coordinates            1                           water_dimer_md-pos-1.xyz
 MD| Velocities             1                           water_dimer_md-vel-1.xyz
 MD| Energies               1                              water_dimer_md-1.ener
 MD| Dump                  20                           water_dimer_md-1.restart

 ROT| Rotational Analysis Info 
 ROT| Principal axes and moments of inertia in atomic units:
 ROT|                                1                 2                 3
 ROT| EIGENVALUES            0.378558736E+04   0.781823421E+04   0.116038216E+05
 ROT|      X                     0.015420980      -0.503682221       0.863751361
 ROT|      Y                     0.999391652      -0.019261298      -0.029074538
 ROT|      Z                     0.031281300       0.863674257       0.503078779
 ROT| Numer of Rotovibrational vectors:     6

 Calculation of degrees of freedom
                                                      Number of atoms:         3
                                 Number of Intramolecular constraints:         0
                                 Number of Intermolecular constraints:         0
                                  Invariants(translation + rotations):         6
                                                   Degrees of freedom:         3


 Restraints Information
                                  Number of Intramolecular restraints:         0
                                  Number of Intermolecular restraints:         0

 THERMOSTAT| Thermostat Info for PARTICLES
 THERMOSTAT| Type of thermostat            Canonical Sampling/Velocity Rescaling
 THERMOSTAT| CSVR time constant [  fs]                                     50.00
 THERMOSTAT| Initial Kinetic Energy                                     0.000000
 THERMOSTAT| End of Thermostat Info for PARTICLES

 ************************** Velocities initialization **************************
 Initial Temperature                                                    300.00 K
 COM velocity:           -0.000000000000     -0.000000000000      0.000000000000
 COM position:           13.951164069686     14.154522030052     14.556769196059
 Angular velocity:       -0.000000000000      0.000000000000      0.000000000000
 *******************************************************************************


 Number of electrons:                                                          8
 Number of occupied orbitals:                                                  4
 Number of molecular orbitals:                                                 4

 Number of orbital functions:                                                 23
 Number of independent orbital functions:                                     23

 Extrapolation method: initial_guess


 SCF WAVEFUNCTION OPTIMIZATION

  ----------------------------------- OT ---------------------------------------
  Minimizer      : DIIS                : direct inversion
                                         in the iterative subspace
                                         using   7 DIIS vectors
                                         safer DIIS on
  Preconditioner : FULL_ALL            : diagonalization, state selective
  Precond_solver : DEFAULT
  stepsize       :    0.15000000                  energy_gap     :    0.08000000
  eps_taylor     :   0.10000E-15                  max_taylor     :             4
  ----------------------------------- OT ---------------------------------------

  Step     Update method      Time    Convergence         Total energy    Change
  ------------------------------------------------------------------------------
     1 OT DIIS     0.15E+00    8.4     0.23299381       -16.8943468602 -1.69E+01
     2 OT DIIS     0.15E+00    6.7     0.16004571       -17.1079059891 -2.14E-01
     3 OT DIIS     0.15E+00    6.8     0.03166420       -17.2107257460 -1.03E-01
     4 OT DIIS     0.15E+00    6.9     0.00822989       -17.2184549060 -7.73E-03
     5 OT DIIS     0.15E+00    6.6     0.00156240       -17.2192418285 -7.87E-04
     6 OT DIIS     0.15E+00    6.7     0.00041081       -17.2192654969 -2.37E-05
     7 OT DIIS     0.15E+00    6.7     0.00006587       -17.2192674939 -2.00E-06
     8 OT DIIS     0.15E+00    6.8     0.00001523       -17.2192675395 -4.57E-08
     9 OT DIIS     0.15E+00    6.8     0.00000313       -17.2192675423 -2.74E-09
    10 OT DIIS     0.15E+00    6.8     0.00000075       -17.2192675424 -1.15E-10

  *** SCF run converged in    10 steps ***


  Electronic density on regular grids:         -8.0000000193       -0.0000000193
  Core density on regular grids:                7.9999999997       -0.0000000003
  Total charge density on r-space grids:       -0.0000000195
  Total charge density g-space grids:          -0.0000000196

  Overlap energy of the core charge distribution:               0.00000006293707
  Self energy of the core charge distribution:                -44.34715499673765
  Core Hamiltonian energy:                                     12.91238702080867
  Hartree energy:                                              18.44519938864851
  Exchange-correlation energy:                                 -4.22969483712925
  Dispersion energy:                                           -0.00000418091608

  Total energy:                                               -17.21926754238873

  outer SCF iter =    1 RMS gradient =   0.75E-06 energy =        -17.2192675424
  outer SCF loop converged in   1 iterations or   10 steps


 MOMENTS
  The electric/magnetic moments are written to file:
  water_dimer_dipole.out


 ENERGY| Total FORCE_EVAL ( QS ) energy (a.u.):              -17.219267542392444


 MD_ENERGIES| Initialization proceeding


 ******************************** GO CP2K GO! **********************************
 INITIAL POTENTIAL ENERGY[hartree]     =                     -0.172192675424E+02
 INITIAL KINETIC ENERGY[hartree]       =                      0.142506690448E-02
 INITIAL TEMPERATURE[K]                =                                 300.000
 INITIAL VOLUME[bohr^3]                =                      0.227756292179E+05
 INITIAL CELL LNTHS[bohr]   =      0.2834589E+02   0.2834589E+02   0.2834589E+02
 INITIAL CELL ANGLS[deg]    =      0.9000000E+02   0.9000000E+02   0.9000000E+02
 ******************************** GO CP2K GO! **********************************

 Number of electrons:                                                          8
 Number of occupied orbitals:                                                  4
 Number of molecular orbitals:                                                 4

 Number of orbital functions:                                                 23
 Number of independent orbital functions:                                     23

 Extrapolation method: ASPC


 SCF WAVEFUNCTION OPTIMIZATION

  ----------------------------------- OT ---------------------------------------
  Minimizer      : DIIS                : direct inversion
                                         in the iterative subspace
                                         using   7 DIIS vectors
                                         safer DIIS on
  Preconditioner : FULL_ALL            : diagonalization, state selective
  Precond_solver : DEFAULT
  stepsize       :    0.15000000                  energy_gap     :    0.08000000
  eps_taylor     :   0.10000E-15                  max_taylor     :             4
  ----------------------------------- OT ---------------------------------------

  Step     Update method      Time    Convergence         Total energy    Change
  ------------------------------------------------------------------------------
     1 OT DIIS     0.15E+00    6.0     0.00166934       -17.2194052508 -1.72E+01
     2 OT DIIS     0.15E+00    6.7     0.00074815       -17.2194293096 -2.41E-05
     3 OT DIIS     0.15E+00    6.7     0.00043307       -17.2194332325 -3.92E-06
     4 OT DIIS     0.15E+00    6.7     0.00001476       -17.2194343227 -1.09E-06
     5 OT DIIS     0.15E+00    6.7     0.00000441       -17.2194343247 -2.06E-09
     6 OT DIIS     0.15E+00    6.7     0.00000022       -17.2194343249 -2.14E-10

  *** SCF run converged in     6 steps ***


  Electronic density on regular grids:         -8.0000000134       -0.0000000134
  Core density on regular grids:                7.9999999997       -0.0000000003
  Total charge density on r-space grids:       -0.0000000137
  Total charge density g-space grids:          -0.0000000137

  Overlap energy of the core charge distribution:               0.00000005696573
  Self energy of the core charge distribution:                -44.34715499673765
  Core Hamiltonian energy:                                     12.90220792930183
  Hartree energy:                                              18.45256320620000
  Exchange-correlation energy:                                 -4.22704644661090
  Dispersion energy:                                           -0.00000407406035

  Total energy:                                               -17.21943432494135

  outer SCF iter =    1 RMS gradient =   0.22E-06 energy =        -17.2194343249
  outer SCF loop converged in   1 iterations or    6 steps


 MOMENTS
  The electric/magnetic moments are written to file:
  water_dimer_dipole.out


 ENERGY| Total FORCE_EVAL ( QS ) energy (a.u.):              -17.219434324940785


 Temperature scaled to requested temperature:    312.83 K  ->    312.84 K
 MD| Old VCOM =    -0.0000015383   -0.0000000423    0.0000006960 a.u.
 MD| New VCOM =     0.0000000000   -0.0000000000   -0.0000000000 a.u
 MD| Old VANG =    -0.0000001224   -0.0000011846    0.0000001019 a.u.
 MD| New VANG =     0.0000000000   -0.0000000000    0.0000000000 a.u

 *******************************************************************************
 ENSEMBLE TYPE                =                                              NVT
 STEP NUMBER                  =                                                1
 TIME [fs]                    =                                         0.500000
 CONSERVED QUANTITY [hartree] =                              -0.172178443636E+02

                                              INSTANTANEOUS             AVERAGES
 CPU TIME [s]                 =                      124.72               124.72
 ENERGY DRIFT PER ATOM [K]    =         -0.198742717010E+00   0.000000000000E+00
 POTENTIAL ENERGY[hartree]    =         -0.172194343249E+02  -0.172194343249E+02
 KINETIC ENERGY [hartree]     =          0.148604558639E-02   0.148604558639E-02
 TEMPERATURE [K]              =                     312.837              312.837
 *******************************************************************************


 Number of electrons:                                                          8
 Number of occupied orbitals:                                                  4
 Number of molecular orbitals:                                                 4

 Number of orbital functions:                                                 23
 Number of independent orbital functions:                                     23

 Extrapolation method: ASPC


 SCF WAVEFUNCTION OPTIMIZATION

  ----------------------------------- OT ---------------------------------------
  Minimizer      : DIIS                : direct inversion
                                         in the iterative subspace
                                         using   7 DIIS vectors
                                         safer DIIS on
  Preconditioner : FULL_ALL            : diagonalization, state selective
  Precond_solver : DEFAULT
  stepsize       :    0.15000000                  energy_gap     :    0.08000000
  eps_taylor     :   0.10000E-15                  max_taylor     :             4
  ----------------------------------- OT ---------------------------------------

  Step     Update method      Time    Convergence         Total energy    Change
  ------------------------------------------------------------------------------
     1 OT DIIS     0.15E+00    5.7     0.00024993       -17.2195047630 -1.72E+01
     2 OT DIIS     0.15E+00    6.7     0.00011301       -17.2195052548 -4.92E-07
     3 OT DIIS     0.15E+00    6.6     0.00006089       -17.2195053291 -7.44E-08
     4 OT DIIS     0.15E+00    6.8     0.00000478       -17.2195053524 -2.32E-08
     5 OT DIIS     0.15E+00    6.8     0.00000089       -17.2195053526 -2.24E-10

  *** SCF run converged in     5 steps ***


  Electronic density on regular grids:         -8.0000000076       -0.0000000076
  Core density on regular grids:                7.9999999997       -0.0000000003
  Total charge density on r-space grids:       -0.0000000079
  Total charge density g-space grids:          -0.0000000079

  Overlap energy of the core charge distribution:               0.00000005076476
  Self energy of the core charge distribution:                -44.34715499673765
  Core Hamiltonian energy:                                     12.88994373556065
  Hartree energy:                                              18.46148252254466
  Exchange-correlation energy:                                 -4.22377266620564
  Dispersion energy:                                           -0.00000399851122

  Total energy:                                               -17.21950535258444

  outer SCF iter =    1 RMS gradient =   0.89E-06 energy =        -17.2195053526
  outer SCF loop converged in   1 iterations or    5 steps


 MOMENTS
  The electric/magnetic moments are written to file:
  water_dimer_dipole.out


 ENERGY| Total FORCE_EVAL ( QS ) energy (a.u.):              -17.219505352594972


 Temperature scaled to requested temperature:    283.11 K  ->    283.13 K
 MD| Old VCOM =    -0.0000016615   -0.0000000009    0.0000007028 a.u.
 MD| New VCOM =     0.0000000000    0.0000000000   -0.0000000000 a.u
 MD| Old VANG =    -0.0000001079   -0.0000012322    0.0000000766 a.u.
 MD| New VANG =     0.0000000000    0.0000000000   -0.0000000000 a.u

 *******************************************************************************
 ENSEMBLE TYPE                =                                              NVT
 STEP NUMBER                  =                                                2
 TIME [fs]                    =                                         1.000000
 CONSERVED QUANTITY [hartree] =                              -0.172178446409E+02

                                              INSTANTANEOUS             AVERAGES
 CPU TIME [s]                 =                       40.65                82.69
 ENERGY DRIFT PER ATOM [K]    =         -0.227932354609E+00  -0.113966177304E+00
 POTENTIAL ENERGY[hartree]    =         -0.172195053526E+02  -0.172194698388E+02
 KINETIC ENERGY [hartree]     =          0.134490747340E-02   0.141547652990E-02
 TEMPERATURE [K]              =                     283.125              297.981
 *******************************************************************************


 Number of electrons:                                                          8
 Number of occupied orbitals:                                                  4
 Number of molecular orbitals:                                                 4

 Number of orbital functions:                                                 23
 Number of independent orbital functions:                                     23

 Extrapolation method: ASPC


 SCF WAVEFUNCTION OPTIMIZATION

  ----------------------------------- OT ---------------------------------------
  Minimizer      : DIIS                : direct inversion
                                         in the iterative subspace
                                         using   7 DIIS vectors
                                         safer DIIS on
  Preconditioner : FULL_ALL            : diagonalization, state selective
  Precond_solver : DEFAULT
  stepsize       :    0.15000000                  energy_gap     :    0.08000000
  eps_taylor     :   0.10000E-15                  max_taylor     :             4
  ----------------------------------- OT ---------------------------------------

  Step     Update method      Time    Convergence         Total energy    Change
  ------------------------------------------------------------------------------
     1 OT DIIS     0.15E+00    5.8     0.00012936       -17.2194922215 -1.72E+01
     2 OT DIIS     0.15E+00    6.6     0.00005350       -17.2194923689 -1.47E-07
     3 OT DIIS     0.15E+00    6.9     0.00003118       -17.2194923910 -2.21E-08
     4 OT DIIS     0.15E+00    6.8     0.00000221       -17.2194923961 -5.11E-09
     5 OT DIIS     0.15E+00    6.6     0.00000052       -17.2194923961 -4.31E-11

  *** SCF run converged in     5 steps ***


  Electronic density on regular grids:         -8.0000000017       -0.0000000017
  Core density on regular grids:                7.9999999997       -0.0000000003
  Total charge density on r-space grids:       -0.0000000020
  Total charge density g-space grids:          -0.0000000020

  Overlap energy of the core charge distribution:               0.00000004432430
  Self energy of the core charge distribution:                -44.34715499673765
  Core Hamiltonian energy:                                     12.87602813860909
  Hartree energy:                                              18.47164671607838
  Exchange-correlation energy:                                 -4.22000836117805
  Dispersion energy:                                           -0.00000393720669

  Total energy:                                               -17.21949239611061

  outer SCF iter =    1 RMS gradient =   0.52E-06 energy =        -17.2194923961
  outer SCF loop converged in   1 iterations or    5 steps


 MOMENTS
  The electric/magnetic moments are written to file:
  water_dimer_dipole.out


 ENERGY| Total FORCE_EVAL ( QS ) energy (a.u.):              -17.219492396113338


 Temperature scaled to requested temperature:    287.00 K  ->    287.01 K
 MD| Old VCOM =    -0.0000018065    0.0000000405    0.0000007136 a.u.
 MD| New VCOM =     0.0000000000   -0.0000000000    0.0000000000 a.u
 MD| Old VANG =    -0.0000000806   -0.0000012943    0.0000000422 a.u.
 MD| New VANG =    -0.0000000000    0.0000000000    0.0000000000 a.u

 *******************************************************************************
 ENSEMBLE TYPE                =                                              NVT
 STEP NUMBER                  =                                                3
 TIME [fs]                    =                                         1.500000
 CONSERVED QUANTITY [hartree] =                              -0.172178438257E+02

                                              INSTANTANEOUS             AVERAGES
 CPU TIME [s]                 =                       40.78                68.72
 ENERGY DRIFT PER ATOM [K]    =         -0.142117438917E+00  -0.123349931175E+00
 POTENTIAL ENERGY[hartree]    =         -0.172194923961E+02  -0.172194773579E+02
 KINETIC ENERGY [hartree]     =          0.136336567383E-02   0.139810624454E-02
 TEMPERATURE [K]              =                     287.011              294.324
 *******************************************************************************


 Number of electrons:                                                          8
 Number of occupied orbitals:                                                  4
 Number of molecular orbitals:                                                 4

 Number of orbital functions:                                                 23
 Number of independent orbital functions:                                     23

 Extrapolation method: ASPC


 SCF WAVEFUNCTION OPTIMIZATION

  ----------------------------------- OT ---------------------------------------
  Minimizer      : DIIS                : direct inversion
                                         in the iterative subspace
                                         using   7 DIIS vectors
                                         safer DIIS on
  Preconditioner : FULL_ALL            : diagonalization, state selective
  Precond_solver : DEFAULT
  stepsize       :    0.15000000                  energy_gap     :    0.08000000
  eps_taylor     :   0.10000E-15                  max_taylor     :             4
  ----------------------------------- OT ---------------------------------------

  Step     Update method      Time    Convergence         Total energy    Change
  ------------------------------------------------------------------------------
     1 OT DIIS     0.15E+00    6.0     0.00023830       -17.2194179017 -1.72E+01
     2 OT DIIS     0.15E+00    6.8     0.00011231       -17.2194183673 -4.66E-07
     3 OT DIIS     0.15E+00    6.7     0.00006277       -17.2194184447 -7.74E-08
     4 OT DIIS     0.15E+00    6.7     0.00000255       -17.2194184693 -2.46E-08
     5 OT DIIS     0.15E+00    6.7     0.00000074       -17.2194184694 -6.31E-11

  *** SCF run converged in     5 steps ***


  Electronic density on regular grids:         -7.9999999965        0.0000000035
  Core density on regular grids:                7.9999999997       -0.0000000003
  Total charge density on r-space grids:        0.0000000032
  Total charge density g-space grids:           0.0000000032

  Overlap energy of the core charge distribution:               0.00000003856965
  Self energy of the core charge distribution:                -44.34715499673765
  Core Hamiltonian energy:                                     12.86290116103199
  Hartree energy:                                              18.48127269961840
  Exchange-correlation energy:                                 -4.21643348851756
  Dispersion energy:                                           -0.00000388335029

  Total energy:                                               -17.21941846938547

  outer SCF iter =    1 RMS gradient =   0.74E-06 energy =        -17.2194184694
  outer SCF loop converged in   1 iterations or    5 steps


 MOMENTS
  The electric/magnetic moments are written to file:
  water_dimer_dipole.out


 ENERGY| Total FORCE_EVAL ( QS ) energy (a.u.):              -17.219418469392156


 Temperature scaled to requested temperature:    242.19 K  ->    242.21 K
 MD| Old VCOM =    -0.0000019712    0.0000000831    0.0000007290 a.u.
 MD| New VCOM =    -0.0000000000    0.0000000000    0.0000000000 a.u
 MD| Old VANG =    -0.0000000474   -0.0000013862    0.0000000039 a.u.
 MD| New VANG =     0.0000000000   -0.0000000000    0.0000000000 a.u

 *******************************************************************************
 ENSEMBLE TYPE                =                                              NVT
 STEP NUMBER                  =                                                4
 TIME [fs]                    =                                         2.000000
 CONSERVED QUANTITY [hartree] =                              -0.172178425753E+02

                                              INSTANTANEOUS             AVERAGES
 CPU TIME [s]                 =                       40.84                61.75
 ENERGY DRIFT PER ATOM [K]    =         -0.105041014481E-01  -0.951384737436E-01
 POTENTIAL ENERGY[hartree]    =         -0.172194184694E+02  -0.172194626358E+02
 KINETIC ENERGY [hartree]     =          0.115055177804E-02   0.133621762792E-02
 TEMPERATURE [K]              =                     242.210              281.296
 *******************************************************************************


 Number of electrons:                                                          8
 Number of occupied orbitals:                                                  4
 Number of molecular orbitals:                                                 4

 Number of orbital functions:                                                 23
 Number of independent orbital functions:                                     23

 Extrapolation method: ASPC


 SCF WAVEFUNCTION OPTIMIZATION

  ----------------------------------- OT ---------------------------------------
  Minimizer      : DIIS                : direct inversion
                                         in the iterative subspace
                                         using   7 DIIS vectors
                                         safer DIIS on
  Preconditioner : FULL_ALL            : diagonalization, state selective
  Precond_solver : DEFAULT
  stepsize       :    0.15000000                  energy_gap     :    0.08000000
  eps_taylor     :   0.10000E-15                  max_taylor     :             4
  ----------------------------------- OT ---------------------------------------

  Step     Update method      Time    Convergence         Total energy    Change
  ------------------------------------------------------------------------------
     1 OT DIIS     0.15E+00    5.7     0.00008171       -17.2193088979 -1.72E+01
     2 OT DIIS     0.15E+00    6.7     0.00003187       -17.2193089605 -6.26E-08
     3 OT DIIS     0.15E+00    6.7     0.00001201       -17.2193089711 -1.05E-08
     4 OT DIIS     0.15E+00    6.7     0.00000143       -17.2193089717 -6.37E-10
     5 OT DIIS     0.15E+00    6.7     0.00000028       -17.2193089717 -1.06E-11

  *** SCF run converged in     5 steps ***


  Electronic density on regular grids:         -7.9999999919        0.0000000081
  Core density on regular grids:                7.9999999998       -0.0000000002
  Total charge density on r-space grids:        0.0000000079
  Total charge density g-space grids:           0.0000000079

  Overlap energy of the core charge distribution:               0.00000003353962
  Self energy of the core charge distribution:                -44.34715499673765
  Core Hamiltonian energy:                                     12.85101402937966
  Hartree energy:                                              18.49002620051645
  Exchange-correlation energy:                                 -4.21319041497717
  Dispersion energy:                                           -0.00000382344743

  Total energy:                                               -17.21930897172652

  outer SCF iter =    1 RMS gradient =   0.28E-06 energy =        -17.2193089717
  outer SCF loop converged in   1 iterations or    5 steps


 MOMENTS
  The electric/magnetic moments are written to file:
  water_dimer_dipole.out


 ENERGY| Total FORCE_EVAL ( QS ) energy (a.u.):              -17.219308971727664


 Temperature scaled to requested temperature:    210.88 K  ->    210.89 K
 MD| Old VCOM =    -0.0000020716    0.0000001234    0.0000007210 a.u.
 MD| New VCOM =     0.0000000000   -0.0000000000    0.0000000000 a.u
 MD| Old VANG =    -0.0000000182   -0.0000014528   -0.0000000322 a.u.
 MD| New VANG =     0.0000000000   -0.0000000000    0.0000000000 a.u

 *******************************************************************************
 ENSEMBLE TYPE                =                                              NVT
 STEP NUMBER                  =                                                5
 TIME [fs]                    =                                         2.500000
 CONSERVED QUANTITY [hartree] =                              -0.172178413062E+02

                                              INSTANTANEOUS             AVERAGES
 CPU TIME [s]                 =                       40.52                57.50
 ENERGY DRIFT PER ATOM [K]    =          0.123074047240E+00  -0.514959695468E-01
 POTENTIAL ENERGY[hartree]    =         -0.172193089717E+02  -0.172194319030E+02
 KINETIC ENERGY [hartree]     =          0.100179097584E-02   0.126933229750E-02
 TEMPERATURE [K]              =                     210.893              267.215
 *******************************************************************************


 Number of electrons:                                                          8
 Number of occupied orbitals:                                                  4
 Number of molecular orbitals:                                                 4

 Number of orbital functions:                                                 23
 Number of independent orbital functions:                                     23

 Extrapolation method: ASPC


 SCF WAVEFUNCTION OPTIMIZATION

  ----------------------------------- OT ---------------------------------------
  Minimizer      : DIIS                : direct inversion
                                         in the iterative subspace
                                         using   7 DIIS vectors
                                         safer DIIS on
  Preconditioner : FULL_ALL            : diagonalization, state selective
  Precond_solver : DEFAULT
  stepsize       :    0.15000000                  energy_gap     :    0.08000000
  eps_taylor     :   0.10000E-15                  max_taylor     :             4
  ----------------------------------- OT ---------------------------------------

  Step     Update method      Time    Convergence         Total energy    Change
  ------------------------------------------------------------------------------
     1 OT DIIS     0.15E+00    5.9     0.00012470       -17.2191588451 -1.72E+01
     2 OT DIIS     0.15E+00    6.8     0.00004718       -17.2191589919 -1.47E-07
     3 OT DIIS     0.15E+00    6.5     0.00000354       -17.2191590170 -2.51E-08
     4 OT DIIS     0.15E+00    6.8     0.00000119       -17.2191590171 -1.24E-10
     5 OT DIIS     0.15E+00    6.6     0.00000061       -17.2191590171 -8.74E-12

  *** SCF run converged in     5 steps ***


  Electronic density on regular grids:         -7.9999999874        0.0000000126
  Core density on regular grids:                7.9999999998       -0.0000000002
  Total charge density on r-space grids:        0.0000000124
  Total charge density g-space grids:           0.0000000124

  Overlap energy of the core charge distribution:               0.00000002907952
  Self energy of the core charge distribution:                -44.34715499673765
  Core Hamiltonian energy:                                     12.84001591002204
  Hartree energy:                                              18.49818172371764
  Exchange-correlation energy:                                 -4.21019794226329
  Dispersion energy:                                           -0.00000374095789

  Total energy:                                               -17.21915901713962

  outer SCF iter =    1 RMS gradient =   0.61E-06 energy =        -17.2191590171
  outer SCF loop converged in   1 iterations or    5 steps


 MOMENTS
  The electric/magnetic moments are written to file:
  water_dimer_dipole.out


 ENERGY| Total FORCE_EVAL ( QS ) energy (a.u.):              -17.219159017140448


 Temperature scaled to requested temperature:    232.51 K  ->    232.53 K
 MD| Old VCOM =    -0.0000021575    0.0000001655    0.0000007055 a.u.
 MD| New VCOM =     0.0000000000    0.0000000000    0.0000000000 a.u
 MD| Old VANG =    -0.0000000024   -0.0000015215   -0.0000000641 a.u.
 MD| New VANG =     0.0000000000    0.0000000000    0.0000000000 a.u

 *******************************************************************************
 ENSEMBLE TYPE                =                                              NVT
 STEP NUMBER                  =                                                6
 TIME [fs]                    =                                         3.000000
 CONSERVED QUANTITY [hartree] =                              -0.172178399650E+02

                                              INSTANTANEOUS             AVERAGES
 CPU TIME [s]                 =                       40.57                54.68
 ENERGY DRIFT PER ATOM [K]    =          0.264251878641E+00   0.112867181781E-02
 POTENTIAL ENERGY[hartree]    =         -0.172191590171E+02  -0.172193864220E+02
 KINETIC ENERGY [hartree]     =          0.110455704826E-02   0.124186975596E-02
 TEMPERATURE [K]              =                     232.527              261.434
 *******************************************************************************


 Number of electrons:                                                          8
 Number of occupied orbitals:                                                  4
 Number of molecular orbitals:                                                 4

 Number of orbital functions:                                                 23
 Number of independent orbital functions:                                     23

 Extrapolation method: ASPC


 SCF WAVEFUNCTION OPTIMIZATION

  ----------------------------------- OT ---------------------------------------
  Minimizer      : DIIS                : direct inversion
                                         in the iterative subspace
                                         using   7 DIIS vectors
                                         safer DIIS on
  Preconditioner : FULL_ALL            : diagonalization, state selective
  Precond_solver : DEFAULT
  stepsize       :    0.15000000                  energy_gap     :    0.08000000
  eps_taylor     :   0.10000E-15                  max_taylor     :             4
  ----------------------------------- OT ---------------------------------------

  Step     Update method      Time    Convergence         Total energy    Change
  ------------------------------------------------------------------------------
     1 OT DIIS     0.15E+00    5.9     0.00031908       -17.2189961235 -1.72E+01
     2 OT DIIS     0.15E+00    6.7     0.00017260       -17.2189968504 -7.27E-07
     3 OT DIIS     0.15E+00    6.6     0.00007839       -17.2189970015 -1.51E-07
     4 OT DIIS     0.15E+00    6.6     0.00000253       -17.2189970478 -4.63E-08
     5 OT DIIS     0.15E+00    6.7     0.00000057       -17.2189970479 -6.43E-11

  *** SCF run converged in     5 steps ***


  Electronic density on regular grids:         -7.9999999838        0.0000000162
  Core density on regular grids:                7.9999999998       -0.0000000002
  Total charge density on r-space grids:        0.0000000160
  Total charge density g-space grids:           0.0000000160

  Overlap energy of the core charge distribution:               0.00000002614491
  Self energy of the core charge distribution:                -44.34715499673765
  Core Hamiltonian energy:                                     12.83245847695944
  Hartree energy:                                              18.50386536140215
  Exchange-correlation energy:                                 -4.20816227514999
  Dispersion energy:                                           -0.00000364053209

  Total energy:                                               -17.21899704791323

  outer SCF iter =    1 RMS gradient =   0.57E-06 energy =        -17.2189970479
  outer SCF loop converged in   1 iterations or    5 steps


 MOMENTS
  The electric/magnetic moments are written to file:
  water_dimer_dipole.out


 ENERGY| Total FORCE_EVAL ( QS ) energy (a.u.):              -17.218997047915387


 Temperature scaled to requested temperature:    190.63 K  ->    190.65 K
 MD| Old VCOM =    -0.0000022281    0.0000002084    0.0000006840 a.u.
 MD| New VCOM =     0.0000000000    0.0000000000    0.0000000000 a.u
 MD| Old VANG =    -0.0000000015   -0.0000015891   -0.0000000898 a.u.
 MD| New VANG =     0.0000000000   -0.0000000000   -0.0000000000 a.u

 *******************************************************************************
 ENSEMBLE TYPE                =                                              NVT
 STEP NUMBER                  =                                                7
 TIME [fs]                    =                                         3.500000
 CONSERVED QUANTITY [hartree] =                              -0.172178388557E+02

                                              INSTANTANEOUS             AVERAGES
 CPU TIME [s]                 =                       40.42                52.64
 ENERGY DRIFT PER ATOM [K]    =          0.381015353987E+00   0.553981978419E-01
 POTENTIAL ENERGY[hartree]    =         -0.172189970479E+02  -0.172193307971E+02
 KINETIC ENERGY [hartree]     =          0.905624093760E-03   0.119383466136E-02
 TEMPERATURE [K]              =                     190.649              251.322
 *******************************************************************************


 Number of electrons:                                                          8
 Number of occupied orbitals:                                                  4
 Number of molecular orbitals:                                                 4

 Number of orbital functions:                                                 23
 Number of independent orbital functions:                                     23

 Extrapolation method: ASPC


 SCF WAVEFUNCTION OPTIMIZATION

  ----------------------------------- OT ---------------------------------------
  Minimizer      : DIIS                : direct inversion
                                         in the iterative subspace
                                         using   7 DIIS vectors
                                         safer DIIS on
  Preconditioner : FULL_ALL            : diagonalization, state selective
  Precond_solver : DEFAULT
  stepsize       :    0.15000000                  energy_gap     :    0.08000000
  eps_taylor     :   0.10000E-15                  max_taylor     :             4
  ----------------------------------- OT ---------------------------------------

  Step     Update method      Time    Convergence         Total energy    Change
  ------------------------------------------------------------------------------
     1 OT DIIS     0.15E+00    5.8     0.00008706       -17.2188403501 -1.72E+01
     2 OT DIIS     0.15E+00    6.6     0.00004613       -17.2188404017 -5.16E-08
     3 OT DIIS     0.15E+00    6.7     0.00002006       -17.2188404119 -1.02E-08
     4 OT DIIS     0.15E+00    6.6     0.00000150       -17.2188404148 -2.91E-09
     5 OT DIIS     0.15E+00    6.6     0.00000025       -17.2188404149 -2.35E-11

  *** SCF run converged in     5 steps ***


  Electronic density on regular grids:         -7.9999999811        0.0000000189
  Core density on regular grids:                7.9999999998       -0.0000000002
  Total charge density on r-space grids:        0.0000000187
  Total charge density g-space grids:           0.0000000186

  Overlap energy of the core charge distribution:               0.00000002481293
  Self energy of the core charge distribution:                -44.34715499673765
  Core Hamiltonian energy:                                     12.82898173146163
  Hartree energy:                                              18.50660633795647
  Exchange-correlation energy:                                 -4.20726999144318
  Dispersion energy:                                           -0.00000352090844

  Total energy:                                               -17.21884041485824

  outer SCF iter =    1 RMS gradient =   0.25E-06 energy =        -17.2188404149
  outer SCF loop converged in   1 iterations or    5 steps


 MOMENTS
  The electric/magnetic moments are written to file:
  water_dimer_dipole.out


 ENERGY| Total FORCE_EVAL ( QS ) energy (a.u.):              -17.218840414859237


 Temperature scaled to requested temperature:    179.41 K  ->    179.43 K
 MD| Old VCOM =    -0.0000024593    0.0000002679    0.0000007122 a.u.
 MD| New VCOM =     0.0000000000   -0.0000000000   -0.0000000000 a.u
 MD| Old VANG =    -0.0000000128   -0.0000017728   -0.0000001157 a.u.
 MD| New VANG =     0.0000000000    0.0000000000   -0.0000000000 a.u

 *******************************************************************************
 ENSEMBLE TYPE                =                                              NVT
 STEP NUMBER                  =                                                8
 TIME [fs]                    =                                         4.000000
 CONSERVED QUANTITY [hartree] =                              -0.172178382629E+02

                                              INSTANTANEOUS             AVERAGES
 CPU TIME [s]                 =                       40.57                51.13
 ENERGY DRIFT PER ATOM [K]    =          0.443411941567E+00   0.103899915808E+00
 POTENTIAL ENERGY[hartree]    =         -0.172188404149E+02  -0.172192694993E+02
 KINETIC ENERGY [hartree]     =          0.852325523639E-03   0.115114601915E-02
 TEMPERATURE [K]              =                     179.429              242.335
 *******************************************************************************


 Number of electrons:                                                          8
 Number of occupied orbitals:                                                  4
 Number of molecular orbitals:                                                 4

 Number of orbital functions:                                                 23
 Number of independent orbital functions:                                     23

 Extrapolation method: ASPC


 SCF WAVEFUNCTION OPTIMIZATION

  ----------------------------------- OT ---------------------------------------
  Minimizer      : DIIS                : direct inversion
                                         in the iterative subspace
                                         using   7 DIIS vectors
                                         safer DIIS on
  Preconditioner : FULL_ALL            : diagonalization, state selective
  Precond_solver : DEFAULT
  stepsize       :    0.15000000                  energy_gap     :    0.08000000
  eps_taylor     :   0.10000E-15                  max_taylor     :             4
  ----------------------------------- OT ---------------------------------------

  Step     Update method      Time    Convergence         Total energy    Change
  ------------------------------------------------------------------------------
     1 OT DIIS     0.15E+00    5.8     0.00018240       -17.2187066239 -1.72E+01
     2 OT DIIS     0.15E+00    6.7     0.00009822       -17.2187068619 -2.38E-07
     3 OT DIIS     0.15E+00    6.6     0.00004495       -17.2187069107 -4.88E-08
     4 OT DIIS     0.15E+00    6.7     0.00000162       -17.2187069258 -1.50E-08
     5 OT DIIS     0.15E+00    6.8     0.00000040       -17.2187069258 -2.74E-11

  *** SCF run converged in     5 steps ***


  Electronic density on regular grids:         -7.9999999794        0.0000000206
  Core density on regular grids:                7.9999999998       -0.0000000002
  Total charge density on r-space grids:        0.0000000204
  Total charge density g-space grids:           0.0000000203

  Overlap energy of the core charge distribution:               0.00000002511511
  Self energy of the core charge distribution:                -44.34715499673765
  Core Hamiltonian energy:                                     12.82990207324788
  Hartree energy:                                              18.50615893223939
  Exchange-correlation energy:                                 -4.20760956944168
  Dispersion energy:                                           -0.00000339020330

  Total energy:                                               -17.21870692578025

  outer SCF iter =    1 RMS gradient =   0.40E-06 energy =        -17.2187069258
  outer SCF loop converged in   1 iterations or    5 steps


 MOMENTS
  The electric/magnetic moments are written to file:
  water_dimer_dipole.out


 ENERGY| Total FORCE_EVAL ( QS ) energy (a.u.):              -17.218706925780317


 Temperature scaled to requested temperature:    137.98 K  ->    138.01 K
 MD| Old VCOM =    -0.0000025567    0.0000003124    0.0000007048 a.u.
 MD| New VCOM =     0.0000000000    0.0000000000    0.0000000000 a.u
 MD| Old VANG =    -0.0000000289   -0.0000018576   -0.0000001303 a.u.
 MD| New VANG =    -0.0000000000    0.0000000000    0.0000000000 a.u

 *******************************************************************************
 ENSEMBLE TYPE                =                                              NVT
 STEP NUMBER                  =                                                9
 TIME [fs]                    =                                         4.500000
 CONSERVED QUANTITY [hartree] =                              -0.172178382788E+02

                                              INSTANTANEOUS             AVERAGES
 CPU TIME [s]                 =                       40.70                49.97
 ENERGY DRIFT PER ATOM [K]    =          0.441736258303E+00   0.141437287196E+00
 POTENTIAL ENERGY[hartree]    =         -0.172187069258E+02  -0.172192069912E+02
 KINETIC ENERGY [hartree]     =          0.655570677407E-03   0.109608209229E-02
 TEMPERATURE [K]              =                     138.008              230.743
 *******************************************************************************


 Number of electrons:                                                          8
 Number of occupied orbitals:                                                  4
 Number of molecular orbitals:                                                 4

 Number of orbital functions:                                                 23
 Number of independent orbital functions:                                     23

 Extrapolation method: ASPC


 SCF WAVEFUNCTION OPTIMIZATION

  ----------------------------------- OT ---------------------------------------
  Minimizer      : DIIS                : direct inversion
                                         in the iterative subspace
                                         using   7 DIIS vectors
                                         safer DIIS on
  Preconditioner : FULL_ALL            : diagonalization, state selective
  Precond_solver : DEFAULT
  stepsize       :    0.15000000                  energy_gap     :    0.08000000
  eps_taylor     :   0.10000E-15                  max_taylor     :             4
  ----------------------------------- OT ---------------------------------------

  Step     Update method      Time    Convergence         Total energy    Change
  ------------------------------------------------------------------------------
     1 OT DIIS     0.15E+00    5.8     0.00014729       -17.2185736946 -1.72E+01
     2 OT DIIS     0.15E+00    6.7     0.00007456       -17.2185738500 -1.55E-07
     3 OT DIIS     0.15E+00    6.7     0.00003533       -17.2185738778 -2.78E-08
     4 OT DIIS     0.15E+00    6.6     0.00000271       -17.2185738863 -8.55E-09
     5 OT DIIS     0.15E+00    6.6     0.00000043       -17.2185738864 -7.40E-11

  *** SCF run converged in     5 steps ***


  Electronic density on regular grids:         -7.9999999784        0.0000000216
  Core density on regular grids:                7.9999999998       -0.0000000002
  Total charge density on r-space grids:        0.0000000214
  Total charge density g-space grids:           0.0000000213

  Overlap energy of the core charge distribution:               0.00000002717853
  Self energy of the core charge distribution:                -44.34715499673765
  Core Hamiltonian energy:                                     12.83528531105394
  Hartree energy:                                              18.50250777009997
  Exchange-correlation energy:                                 -4.20920876167668
  Dispersion energy:                                           -0.00000323632852

  Total energy:                                               -17.21857388641042

  outer SCF iter =    1 RMS gradient =   0.43E-06 energy =        -17.2185738864
  outer SCF loop converged in   1 iterations or    5 steps


 MOMENTS
  The electric/magnetic moments are written to file:
  water_dimer_dipole.out


 ENERGY| Total FORCE_EVAL ( QS ) energy (a.u.):              -17.218573886411061


 Temperature scaled to requested temperature:     97.70 K  ->     97.71 K
 MD| Old VCOM =    -0.0000021979    0.0000002926    0.0000005830 a.u.
 MD| New VCOM =     0.0000000000    0.0000000000   -0.0000000000 a.u
 MD| Old VANG =    -0.0000000377   -0.0000016035   -0.0000001166 a.u.
 MD| New VANG =     0.0000000000   -0.0000000000    0.0000000000 a.u

 *******************************************************************************
 ENSEMBLE TYPE                =                                              NVT
 STEP NUMBER                  =                                               10
 TIME [fs]                    =                                         5.000000
 CONSERVED QUANTITY [hartree] =                              -0.172178385232E+02

                                              INSTANTANEOUS             AVERAGES
 CPU TIME [s]                 =                       40.27                49.00
 ENERGY DRIFT PER ATOM [K]    =          0.416007604246E+00   0.168894318901E+00
 POTENTIAL ENERGY[hartree]    =         -0.172185738864E+02  -0.172191436807E+02
 KINETIC ENERGY [hartree]     =          0.464166473260E-03   0.103289053038E-02
 TEMPERATURE [K]              =                      97.715              217.440
 *******************************************************************************


 Number of electrons:                                                          8
 Number of occupied orbitals:                                                  4
 Number of molecular orbitals:                                                 4

 Number of orbital functions:                                                 23
 Number of independent orbital functions:                                     23

 Extrapolation method: ASPC


 SCF WAVEFUNCTION OPTIMIZATION

  ----------------------------------- OT ---------------------------------------
  Minimizer      : DIIS                : direct inversion
                                         in the iterative subspace
                                         using   7 DIIS vectors
                                         safer DIIS on
  Preconditioner : FULL_ALL            : diagonalization, state selective
  Precond_solver : DEFAULT
  stepsize       :    0.15000000                  energy_gap     :    0.08000000
  eps_taylor     :   0.10000E-15                  max_taylor     :             4
  ----------------------------------- OT ---------------------------------------

  Step     Update method      Time    Convergence         Total energy    Change
  ------------------------------------------------------------------------------
     1 OT DIIS     0.15E+00    5.9     0.00027722       -17.2184623559 -1.72E+01
     2 OT DIIS     0.15E+00    6.5     0.00010580       -17.2184630807 -7.25E-07
     3 OT DIIS     0.15E+00    6.6     0.00002216       -17.2184632044 -1.24E-07
     4 OT DIIS     0.15E+00    6.7     0.00000699       -17.2184632066 -2.17E-09
     5 OT DIIS     0.15E+00    6.6     0.00000096       -17.2184632068 -2.39E-10

  *** SCF run converged in     5 steps ***


  Electronic density on regular grids:         -7.9999999782        0.0000000218
  Core density on regular grids:                7.9999999998       -0.0000000002
  Total charge density on r-space grids:        0.0000000216
  Total charge density g-space grids:           0.0000000216

  Overlap energy of the core charge distribution:               0.00000003055590
  Self energy of the core charge distribution:                -44.34715499673765
  Core Hamiltonian energy:                                     12.84346484395693
  Hartree energy:                                              18.49680946078897
  Exchange-correlation energy:                                 -4.21157944808519
  Dispersion energy:                                           -0.00000309728734

  Total energy:                                               -17.21846320680838

  outer SCF iter =    1 RMS gradient =   0.96E-06 energy =        -17.2184632068
  outer SCF loop converged in   1 iterations or    5 steps


 MOMENTS
  The electric/magnetic moments are written to file:
  water_dimer_dipole.out


 ENERGY| Total FORCE_EVAL ( QS ) energy (a.u.):              -17.218463206817667


 Temperature scaled to requested temperature:     77.12 K  ->     77.14 K
 MD| Old VCOM =    -0.0000024758    0.0000003483    0.0000006406 a.u.
 MD| New VCOM =     0.0000000000   -0.0000000000   -0.0000000000 a.u
 MD| Old VANG =    -0.0000000533   -0.0000018125   -0.0000001358 a.u.
 MD| New VANG =     0.0000000000    0.0000000000    0.0000000000 a.u

 *******************************************************************************
 ENSEMBLE TYPE                =                                              NVT
 STEP NUMBER                  =                                               11
 TIME [fs]                    =                                         5.500000
 CONSERVED QUANTITY [hartree] =                              -0.172178384105E+02

                                              INSTANTANEOUS             AVERAGES
 CPU TIME [s]                 =                       40.40                48.22
 ENERGY DRIFT PER ATOM [K]    =          0.427872800087E+00   0.192437817191E+00
 POTENTIAL ENERGY[hartree]    =         -0.172184632068E+02  -0.172190818194E+02
 KINETIC ENERGY [hartree]     =          0.366455421164E-03   0.972305520454E-03
 TEMPERATURE [K]              =                      77.145              204.686
 *******************************************************************************


 Number of electrons:                                                          8
 Number of occupied orbitals:                                                  4
 Number of molecular orbitals:                                                 4

 Number of orbital functions:                                                 23
 Number of independent orbital functions:                                     23

 Extrapolation method: ASPC


 SCF WAVEFUNCTION OPTIMIZATION

  ----------------------------------- OT ---------------------------------------
  Minimizer      : DIIS                : direct inversion
                                         in the iterative subspace
                                         using   7 DIIS vectors
                                         safer DIIS on
  Preconditioner : FULL_ALL            : diagonalization, state selective
  Precond_solver : DEFAULT
  stepsize       :    0.15000000                  energy_gap     :    0.08000000
  eps_taylor     :   0.10000E-15                  max_taylor     :             4
  ----------------------------------- OT ---------------------------------------

  Step     Update method      Time    Convergence         Total energy    Change
  ------------------------------------------------------------------------------
     1 OT DIIS     0.15E+00    5.9     0.00006536       -17.2183794128 -1.72E+01
     2 OT DIIS     0.15E+00    6.6     0.00003532       -17.2183794408 -2.80E-08
     3 OT DIIS     0.15E+00    6.8     0.00001442       -17.2183794466 -5.88E-09
     4 OT DIIS     0.15E+00    6.6     0.00000113       -17.2183794482 -1.56E-09
     5 OT DIIS     0.15E+00    6.7     0.00000017       -17.2183794482 -1.55E-11

  *** SCF run converged in     5 steps ***


  Electronic density on regular grids:         -7.9999999785        0.0000000215
  Core density on regular grids:                7.9999999998       -0.0000000002
  Total charge density on r-space grids:        0.0000000212
  Total charge density g-space grids:           0.0000000212

  Overlap energy of the core charge distribution:               0.00000003500141
  Self energy of the core charge distribution:                -44.34715499673765
  Core Hamiltonian energy:                                     12.85362099217735
  Hartree energy:                                              18.48965038720491
  Exchange-correlation energy:                                 -4.21449289121150
  Dispersion energy:                                           -0.00000297465877

  Total energy:                                               -17.21837944822426

  outer SCF iter =    1 RMS gradient =   0.17E-06 energy =        -17.2183794482
  outer SCF loop converged in   1 iterations or    5 steps


 MOMENTS
  The electric/magnetic moments are written to file:
  water_dimer_dipole.out


 ENERGY| Total FORCE_EVAL ( QS ) energy (a.u.):              -17.218379448223587


 Temperature scaled to requested temperature:     65.55 K  ->     65.58 K
 MD| Old VCOM =    -0.0000027784    0.0000003996    0.0000007133 a.u.
 MD| New VCOM =     0.0000000000   -0.0000000000    0.0000000000 a.u
 MD| Old VANG =    -0.0000000668   -0.0000020387   -0.0000001562 a.u.
 MD| New VANG =    -0.0000000000   -0.0000000000    0.0000000000 a.u

 *******************************************************************************
 ENSEMBLE TYPE                =                                              NVT
 STEP NUMBER                  =                                               12
 TIME [fs]                    =                                         6.000000
 CONSERVED QUANTITY [hartree] =                              -0.172178378606E+02

                                              INSTANTANEOUS             AVERAGES
 CPU TIME [s]                 =                       40.63                47.59
 ENERGY DRIFT PER ATOM [K]    =          0.485755564600E+00   0.216880962808E+00
 POTENTIAL ENERGY[hartree]    =         -0.172183794482E+02  -0.172190232885E+02
 KINETIC ENERGY [hartree]     =          0.311534837355E-03   0.917241296862E-03
 TEMPERATURE [K]              =                      65.583              193.094
 *******************************************************************************


 Number of electrons:                                                          8
 Number of occupied orbitals:                                                  4
 Number of molecular orbitals:                                                 4

 Number of orbital functions:                                                 23
 Number of independent orbital functions:                                     23

 Extrapolation method: ASPC


 SCF WAVEFUNCTION OPTIMIZATION

  ----------------------------------- OT ---------------------------------------
  Minimizer      : DIIS                : direct inversion
                                         in the iterative subspace
                                         using   7 DIIS vectors
                                         safer DIIS on
  Preconditioner : FULL_ALL            : diagonalization, state selective
  Precond_solver : DEFAULT
  stepsize       :    0.15000000                  energy_gap     :    0.08000000
  eps_taylor     :   0.10000E-15                  max_taylor     :             4
  ----------------------------------- OT ---------------------------------------

  Step     Update method      Time    Convergence         Total energy    Change
  ------------------------------------------------------------------------------
     1 OT DIIS     0.15E+00    5.9     0.00017068       -17.2183098348 -1.72E+01
     2 OT DIIS     0.15E+00    6.6     0.00009053       -17.2183100384 -2.04E-07
     3 OT DIIS     0.15E+00    6.7     0.00004013       -17.2183100794 -4.09E-08
     4 OT DIIS     0.15E+00    6.8     0.00000215       -17.2183100914 -1.20E-08
     5 OT DIIS     0.15E+00    6.7     0.00000046       -17.2183100914 -4.61E-11

  *** SCF run converged in     5 steps ***


  Electronic density on regular grids:         -7.9999999794        0.0000000206
  Core density on regular grids:                7.9999999998       -0.0000000002
  Total charge density on r-space grids:        0.0000000203
  Total charge density g-space grids:           0.0000000203

  Overlap energy of the core charge distribution:               0.00000004107639
  Self energy of the core charge distribution:                -44.34715499673765
  Core Hamiltonian energy:                                     12.86666521569855
  Hartree energy:                                              18.48039461479694
  Exchange-correlation energy:                                 -4.21821211192462
  Dispersion energy:                                           -0.00000285434228

  Total energy:                                               -17.21831009143266

  outer SCF iter =    1 RMS gradient =   0.46E-06 energy =        -17.2183100914
  outer SCF loop converged in   1 iterations or    5 steps


 MOMENTS
  The electric/magnetic moments are written to file:
  water_dimer_dipole.out


 ENERGY| Total FORCE_EVAL ( QS ) energy (a.u.):              -17.218310091432734


 Temperature scaled to requested temperature:     55.64 K  ->     55.67 K
 MD| Old VCOM =    -0.0000024665    0.0000003519    0.0000006382 a.u.
 MD| New VCOM =     0.0000000000    0.0000000000   -0.0000000000 a.u
 MD| Old VANG =    -0.0000000605   -0.0000018128   -0.0000001407 a.u.
 MD| New VANG =    -0.0000000000    0.0000000000    0.0000000000 a.u

 *******************************************************************************
 ENSEMBLE TYPE                =                                              NVT
 STEP NUMBER                  =                                               13
 TIME [fs]                    =                                         6.500000
 CONSERVED QUANTITY [hartree] =                              -0.172178366484E+02

                                              INSTANTANEOUS             AVERAGES
 CPU TIME [s]                 =                       40.59                47.05
 ENERGY DRIFT PER ATOM [K]    =          0.613345988254E+00   0.247378272458E+00
 POTENTIAL ENERGY[hartree]    =         -0.172183100914E+02  -0.172189684272E+02
 KINETIC ENERGY [hartree]     =          0.264422420342E-03   0.867024460207E-03
 TEMPERATURE [K]              =                      55.665              182.523
 *******************************************************************************


 Number of electrons:                                                          8
 Number of occupied orbitals:                                                  4
 Number of molecular orbitals:                                                 4

 Number of orbital functions:                                                 23
 Number of independent orbital functions:                                     23

 Extrapolation method: ASPC


 SCF WAVEFUNCTION OPTIMIZATION

  ----------------------------------- OT ---------------------------------------
  Minimizer      : DIIS                : direct inversion
                                         in the iterative subspace
                                         using   7 DIIS vectors
                                         safer DIIS on
  Preconditioner : FULL_ALL            : diagonalization, state selective
  Precond_solver : DEFAULT
  stepsize       :    0.15000000                  energy_gap     :    0.08000000
  eps_taylor     :   0.10000E-15                  max_taylor     :             4
  ----------------------------------- OT ---------------------------------------

  Step     Update method      Time    Convergence         Total energy    Change
  ------------------------------------------------------------------------------
     1 OT DIIS     0.15E+00    5.8     0.00031467       -17.2182805267 -1.72E+01
     2 OT DIIS     0.15E+00    6.6     0.00015495       -17.2182812466 -7.20E-07
     3 OT DIIS     0.15E+00    6.6     0.00007452       -17.2182813703 -1.24E-07
     4 OT DIIS     0.15E+00    6.7     0.00000587       -17.2182814082 -3.78E-08
     5 OT DIIS     0.15E+00    6.6     0.00000092       -17.2182814085 -3.61E-10

  *** SCF run converged in     5 steps ***


  Electronic density on regular grids:         -7.9999999806        0.0000000194
  Core density on regular grids:                7.9999999998       -0.0000000002
  Total charge density on r-space grids:        0.0000000192
  Total charge density g-space grids:           0.0000000192

  Overlap energy of the core charge distribution:               0.00000004692946
  Self energy of the core charge distribution:                -44.34715499673765
  Core Hamiltonian energy:                                     12.87868859351510
  Hartree energy:                                              18.47181045089700
  Exchange-correlation energy:                                 -4.22162273299078
  Dispersion energy:                                           -0.00000277014930

  Total energy:                                               -17.21828140853617

  outer SCF iter =    1 RMS gradient =   0.92E-06 energy =        -17.2182814085
  outer SCF loop converged in   1 iterations or    5 steps


 MOMENTS
  The electric/magnetic moments are written to file:
  water_dimer_dipole.out


 ENERGY| Total FORCE_EVAL ( QS ) energy (a.u.):              -17.218281408546602


 Temperature scaled to requested temperature:     37.66 K  ->     37.68 K
 MD| Old VCOM =    -0.0000022334    0.0000003082    0.0000005902 a.u.
 MD| New VCOM =    -0.0000000000   -0.0000000000    0.0000000000 a.u
 MD| Old VANG =    -0.0000000498   -0.0000016430   -0.0000001274 a.u.
 MD| New VANG =     0.0000000000    0.0000000000    0.0000000000 a.u

 *******************************************************************************
 ENSEMBLE TYPE                =                                              NVT
 STEP NUMBER                  =                                               14
 TIME [fs]                    =                                         7.000000
 CONSERVED QUANTITY [hartree] =                              -0.172178352751E+02

                                              INSTANTANEOUS             AVERAGES
 CPU TIME [s]                 =                       40.40                46.58
 ENERGY DRIFT PER ATOM [K]    =          0.757900863619E+00   0.283844171826E+00
 POTENTIAL ENERGY[hartree]    =         -0.172182814085E+02  -0.172189193544E+02
 KINETIC ENERGY [hartree]     =          0.179003633220E-03   0.817880115422E-03
 TEMPERATURE [K]              =                      37.683              172.177
 *******************************************************************************


 Number of electrons:                                                          8
 Number of occupied orbitals:                                                  4
 Number of molecular orbitals:                                                 4

 Number of orbital functions:                                                 23
 Number of independent orbital functions:                                     23

 Extrapolation method: ASPC


 SCF WAVEFUNCTION OPTIMIZATION

  ----------------------------------- OT ---------------------------------------
  Minimizer      : DIIS                : direct inversion
                                         in the iterative subspace
                                         using   7 DIIS vectors
                                         safer DIIS on
  Preconditioner : FULL_ALL            : diagonalization, state selective
  Precond_solver : DEFAULT
  stepsize       :    0.15000000                  energy_gap     :    0.08000000
  eps_taylor     :   0.10000E-15                  max_taylor     :             4
  ----------------------------------- OT ---------------------------------------

  Step     Update method      Time    Convergence         Total energy    Change
  ------------------------------------------------------------------------------
     1 OT DIIS     0.15E+00    5.8     0.00011608       -17.2183205611 -1.72E+01
     2 OT DIIS     0.15E+00    6.5     0.00005955       -17.2183206537 -9.26E-08
     3 OT DIIS     0.15E+00    6.6     0.00002606       -17.2183206711 -1.74E-08
     4 OT DIIS     0.15E+00    6.7     0.00000216       -17.2183206760 -4.90E-09
     5 OT DIIS     0.15E+00    6.6     0.00000032       -17.2183206761 -4.85E-11

  *** SCF run converged in     5 steps ***


  Electronic density on regular grids:         -7.9999999817        0.0000000183
  Core density on regular grids:                7.9999999998       -0.0000000002
  Total charge density on r-space grids:        0.0000000181
  Total charge density g-space grids:           0.0000000181

  Overlap energy of the core charge distribution:               0.00000005098493
  Self energy of the core charge distribution:                -44.34715499673765
  Core Hamiltonian energy:                                     12.88723890653883
  Hartree energy:                                              18.46563343571353
  Exchange-correlation energy:                                 -4.22403533824065
  Dispersion energy:                                           -0.00000273432904

  Total energy:                                               -17.21832067607005

  outer SCF iter =    1 RMS gradient =   0.32E-06 energy =        -17.2183206761
  outer SCF loop converged in   1 iterations or    5 steps


 MOMENTS
  The electric/magnetic moments are written to file:
  water_dimer_dipole.out


 ENERGY| Total FORCE_EVAL ( QS ) energy (a.u.):              -17.218320676070050


 Temperature scaled to requested temperature:     50.09 K  ->     50.12 K
 MD| Old VCOM =    -0.0000026075    0.0000003423    0.0000007090 a.u.
 MD| New VCOM =    -0.0000000000    0.0000000000   -0.0000000000 a.u
 MD| Old VANG =    -0.0000000450   -0.0000019181   -0.0000001447 a.u.
 MD| New VANG =    -0.0000000000   -0.0000000000   -0.0000000000 a.u

 *******************************************************************************
 ENSEMBLE TYPE                =                                              NVT
 STEP NUMBER                  =                                               15
 TIME [fs]                    =                                         7.500000
 CONSERVED QUANTITY [hartree] =                              -0.172178349129E+02

                                              INSTANTANEOUS             AVERAGES
 CPU TIME [s]                 =                       40.56                46.17
 ENERGY DRIFT PER ATOM [K]    =          0.796019487142E+00   0.317989192847E+00
 POTENTIAL ENERGY[hartree]    =         -0.172183206761E+02  -0.172188794425E+02
 KINETIC ENERGY [hartree]     =          0.238082099957E-03   0.779226914391E-03
 TEMPERATURE [K]              =                      50.120              164.040
 *******************************************************************************


 Number of electrons:                                                          8
 Number of occupied orbitals:                                                  4
 Number of molecular orbitals:                                                 4

 Number of orbital functions:                                                 23
 Number of independent orbital functions:                                     23

 Extrapolation method: ASPC


 SCF WAVEFUNCTION OPTIMIZATION

  ----------------------------------- OT ---------------------------------------
  Minimizer      : DIIS                : direct inversion
                                         in the iterative subspace
                                         using   7 DIIS vectors
                                         safer DIIS on
  Preconditioner : FULL_ALL            : diagonalization, state selective
  Precond_solver : DEFAULT
  stepsize       :    0.15000000                  energy_gap     :    0.08000000
  eps_taylor     :   0.10000E-15                  max_taylor     :             4
  ----------------------------------- OT ---------------------------------------

  Step     Update method      Time    Convergence         Total energy    Change
  ------------------------------------------------------------------------------
     1 OT DIIS     0.15E+00    5.8     0.00021050       -17.2184457701 -1.72E+01
     2 OT DIIS     0.15E+00    6.7     0.00008840       -17.2184461676 -3.97E-07
     3 OT DIIS     0.15E+00    6.7     0.00005161       -17.2184462300 -6.24E-08
     4 OT DIIS     0.15E+00    6.6     0.00000258       -17.2184462436 -1.36E-08
     5 OT DIIS     0.15E+00    6.6     0.00000072       -17.2184462436 -5.94E-11

  *** SCF run converged in     5 steps ***


  Electronic density on regular grids:         -7.9999999831        0.0000000169
  Core density on regular grids:                7.9999999998       -0.0000000002
  Total charge density on r-space grids:        0.0000000167
  Total charge density g-space grids:           0.0000000167

  Overlap energy of the core charge distribution:               0.00000005380016
  Self energy of the core charge distribution:                -44.34715499673765
  Core Hamiltonian energy:                                     12.89378666291575
  Hartree energy:                                              18.46078727297293
[...]

  outer SCF iter =    1 RMS gradient =   0.21E-06 energy =        -17.2180173718
  outer SCF loop converged in   1 iterations or    5 steps


 MOMENTS
  The electric/magnetic moments are written to file:
  water_dimer_dipole.out


 ENERGY| Total FORCE_EVAL ( QS ) energy (a.u.):              -17.218017371835270


 Temperature scaled to requested temperature:    413.50 K  ->    413.51 K
 MD| Old VCOM =    -0.0000014255   -0.0000001335    0.0000007910 a.u.
 MD| New VCOM =     0.0000000000    0.0000000000   -0.0000000000 a.u
 MD| Old VANG =    -0.0000000128   -0.0000012438    0.0000000633 a.u.
 MD| New VANG =     0.0000000000    0.0000000000    0.0000000000 a.u

 *******************************************************************************
 ENSEMBLE TYPE                =                                              NVT
 STEP NUMBER                  =                                              112
 TIME [fs]                    =                                        56.000000
 CONSERVED QUANTITY [hartree] =                              -0.172178345645E+02

                                              INSTANTANEOUS             AVERAGES
 CPU TIME [s]                 =                       52.53                49.53
 ENERGY DRIFT PER ATOM [K]    =          0.832696725347E+00   0.754117738134E+00
 POTENTIAL ENERGY[hartree]    =         -0.172180173718E+02  -0.172185187368E+02
 KINETIC ENERGY [hartree]     =          0.196424802242E-02   0.122895847741E-02
 TEMPERATURE [K]              =                     413.506              258.716
 *******************************************************************************


 Number of electrons:                                                          8
 Number of occupied orbitals:                                                  4
 Number of molecular orbitals:                                                 4

 Number of orbital functions:                                                 23
 Number of independent orbital functions:                                     23

 Extrapolation method: ASPC


 SCF WAVEFUNCTION OPTIMIZATION

  ----------------------------------- OT ---------------------------------------
  Minimizer      : DIIS                : direct inversion
                                         in the iterative subspace
                                         using   7 DIIS vectors
                                         safer DIIS on
  Preconditioner : FULL_ALL            : diagonalization, state selective
  Precond_solver : DEFAULT
  stepsize       :    0.15000000                  energy_gap     :    0.08000000
  eps_taylor     :   0.10000E-15                  max_taylor     :             4
  ----------------------------------- OT ---------------------------------------

  Step     Update method      Time    Convergence         Total energy    Change
  ------------------------------------------------------------------------------
     1 OT DIIS     0.15E+00    8.6     0.00018954       -17.2174728136 -1.72E+01
     2 OT DIIS     0.15E+00   22.4     0.00009106       -17.2174730831 -2.69E-07
     3 OT DIIS     0.15E+00   11.8     0.00004532       -17.2174731277 -4.46E-08
     4 OT DIIS     0.15E+00    8.6     0.00000323       -17.2174731414 -1.37E-08
     5 OT DIIS     0.15E+00    8.9     0.00000058       -17.2174731415 -1.07E-10

  *** SCF run converged in     5 steps ***


  Electronic density on regular grids:         -8.0000000343       -0.0000000343
  Core density on regular grids:                7.9999999997       -0.0000000003
  Total charge density on r-space grids:       -0.0000000346
  Total charge density g-space grids:          -0.0000000346

  Overlap energy of the core charge distribution:               0.00000003377983
  Self energy of the core charge distribution:                -44.34715499673765
  Core Hamiltonian energy:                                     12.86028383888143
  Hartree energy:                                              18.48287396778140
  Exchange-correlation energy:                                 -4.21346961015798
  Dispersion energy:                                           -0.00000637507567

  Total energy:                                               -17.21747314152864

  outer SCF iter =    1 RMS gradient =   0.58E-06 energy =        -17.2174731415
  outer SCF loop converged in   1 iterations or    5 steps


 MOMENTS
  The electric/magnetic moments are written to file:
  water_dimer_dipole.out


 ENERGY| Total FORCE_EVAL ( QS ) energy (a.u.):              -17.217473141529535


 Temperature scaled to requested temperature:    255.98 K  ->    255.98 K
 MD| Old VCOM =    -0.0000012851   -0.0000001539    0.0000007331 a.u.
 MD| New VCOM =     0.0000000000    0.0000000000   -0.0000000000 a.u
 MD| Old VANG =     0.0000000160   -0.0000011133    0.0000000473 a.u.
 MD| New VANG =    -0.0000000000   -0.0000000000   -0.0000000000 a.u

 *******************************************************************************
 ENSEMBLE TYPE                =                                              NVT
 STEP NUMBER                  =                                              113
 TIME [fs]                    =                                        56.500000
 CONSERVED QUANTITY [hartree] =                              -0.172178270550E+02

                                              INSTANTANEOUS             AVERAGES
 CPU TIME [s]                 =                      103.32                50.00
 ENERGY DRIFT PER ATOM [K]    =          0.162313826140E+01   0.761808185243E+00
 POTENTIAL ENERGY[hartree]    =         -0.172174731415E+02  -0.172185094838E+02
 KINETIC ENERGY [hartree]     =          0.121597969338E-02   0.122884362091E-02
 TEMPERATURE [K]              =                     255.984              258.692
 *******************************************************************************


 Number of electrons:                                                          8
 Number of occupied orbitals:                                                  4
 Number of molecular orbitals:                                                 4

 Number of orbital functions:                                                 23
 Number of independent orbital functions:                                     23

 Extrapolation method: ASPC


 SCF WAVEFUNCTION OPTIMIZATION

  ----------------------------------- OT ---------------------------------------
  Minimizer      : DIIS                : direct inversion
                                         in the iterative subspace
                                         using   7 DIIS vectors
                                         safer DIIS on
  Preconditioner : FULL_ALL            : diagonalization, state selective
  Precond_solver : DEFAULT
  stepsize       :    0.15000000                  energy_gap     :    0.08000000
  eps_taylor     :   0.10000E-15                  max_taylor     :             4
  ----------------------------------- OT ---------------------------------------

  Step     Update method      Time    Convergence         Total energy    Change
  ------------------------------------------------------------------------------
     1 OT DIIS     0.15E+00    9.5     0.00016283       -17.2169365179 -1.72E+01
     2 OT DIIS     0.15E+00    8.3     0.00008104       -17.2169367090 -1.91E-07
     3 OT DIIS     0.15E+00   11.1     0.00003783       -17.2169367427 -3.38E-08
     4 OT DIIS     0.15E+00    7.5     0.00000276       -17.2169367527 -9.95E-09
     5 OT DIIS     0.15E+00    8.3     0.00000053       -17.2169367527 -7.81E-11

  *** SCF run converged in     5 steps ***


  Electronic density on regular grids:         -8.0000000377       -0.0000000377
  Core density on regular grids:                7.9999999997       -0.0000000003
  Total charge density on r-space grids:       -0.0000000379
  Total charge density g-space grids:          -0.0000000380

  Overlap energy of the core charge distribution:               0.00000003210000
  Self energy of the core charge distribution:                -44.34715499673765
  Core Hamiltonian energy:                                     12.85365844884420
  Hartree energy:                                              18.48790750253269
  Exchange-correlation energy:                                 -4.21134102434360
  Dispersion energy:                                           -0.00000671514245

  Total energy:                                               -17.21693675274683

  outer SCF iter =    1 RMS gradient =   0.53E-06 energy =        -17.2169367527
  outer SCF loop converged in   1 iterations or    5 steps


 MOMENTS
  The electric/magnetic moments are written to file:
  water_dimer_dipole.out


 ENERGY| Total FORCE_EVAL ( QS ) energy (a.u.):              -17.216936752747571


 Temperature scaled to requested temperature:    159.62 K  ->    159.62 K
 MD| Old VCOM =    -0.0000012903   -0.0000001846    0.0000007540 a.u.
 MD| New VCOM =     0.0000000000   -0.0000000000    0.0000000000 a.u
 MD| Old VANG =     0.0000000527   -0.0000011012    0.0000000421 a.u.
 MD| New VANG =    -0.0000000000    0.0000000000   -0.0000000000 a.u

 *******************************************************************************
 ENSEMBLE TYPE                =                                              NVT
 STEP NUMBER                  =                                              114
 TIME [fs]                    =                                        57.000000
 CONSERVED QUANTITY [hartree] =                              -0.172178190675E+02

                                              INSTANTANEOUS             AVERAGES
 CPU TIME [s]                 =                       56.70                50.06
 ENERGY DRIFT PER ATOM [K]    =          0.246388536687E+01   0.776738686836E+00
 POTENTIAL ENERGY[hartree]    =         -0.172169367527E+02  -0.172184956879E+02
 KINETIC ENERGY [hartree]     =          0.758246369275E-03   0.122471557485E-02
 TEMPERATURE [K]              =                     159.623              257.823
 *******************************************************************************


 Number of electrons:                                                          8
 Number of occupied orbitals:                                                  4
 Number of molecular orbitals:                                                 4

 Number of orbital functions:                                                 23
 Number of independent orbital functions:                                     23

 Extrapolation method: ASPC


 SCF WAVEFUNCTION OPTIMIZATION

  ----------------------------------- OT ---------------------------------------
  Minimizer      : DIIS                : direct inversion
                                         in the iterative subspace
                                         using   7 DIIS vectors
                                         safer DIIS on
  Preconditioner : FULL_ALL            : diagonalization, state selective
  Precond_solver : DEFAULT
  stepsize       :    0.15000000                  energy_gap     :    0.08000000
  eps_taylor     :   0.10000E-15                  max_taylor     :             4
  ----------------------------------- OT ---------------------------------------

  Step     Update method      Time    Convergence         Total energy    Change
  ------------------------------------------------------------------------------
     1 OT DIIS     0.15E+00   12.2     0.00021535       -17.2165354862 -1.72E+01
     2 OT DIIS     0.15E+00    9.0     0.00010301       -17.2165358363 -3.50E-07
     3 OT DIIS     0.15E+00   11.7     0.00005193       -17.2165358938 -5.75E-08
     4 OT DIIS     0.15E+00    8.2     0.00000374       -17.2165359117 -1.78E-08
     5 OT DIIS     0.15E+00    9.3     0.00000075       -17.2165359118 -1.41E-10

  *** SCF run converged in     5 steps ***


  Electronic density on regular grids:         -8.0000000404       -0.0000000404
  Core density on regular grids:                7.9999999998       -0.0000000002
  Total charge density on r-space grids:       -0.0000000406
  Total charge density g-space grids:          -0.0000000406

  Overlap energy of the core charge distribution:               0.00000003235602
  Self energy of the core charge distribution:                -44.34715499673765
  Core Hamiltonian energy:                                     12.85171484387992
  Hartree energy:                                              18.48951151230054
  Exchange-correlation energy:                                 -4.21060038419838
  Dispersion energy:                                           -0.00000691942517

  Total energy:                                               -17.21653591182473

  outer SCF iter =    1 RMS gradient =   0.75E-06 energy =        -17.2165359118
  outer SCF loop converged in   1 iterations or    5 steps


 MOMENTS
  The electric/magnetic moments are written to file:
  water_dimer_dipole.out


 ENERGY| Total FORCE_EVAL ( QS ) energy (a.u.):              -17.216535911828732


 Temperature scaled to requested temperature:     43.02 K  ->     43.02 K
 MD| Old VCOM =    -0.0000010173   -0.0000001668    0.0000006080 a.u.
 MD| New VCOM =     0.0000000000    0.0000000000    0.0000000000 a.u

 *******************************************************************************
 ENSEMBLE TYPE                =                                              NVT
 STEP NUMBER                  =                                              115
 TIME [fs]                    =                                        57.500000
 CONSERVED QUANTITY [hartree] =                              -0.172178134084E+02

                                              INSTANTANEOUS             AVERAGES
 CPU TIME [s]                 =                       78.30                50.31
 ENERGY DRIFT PER ATOM [K]    =          0.305955001553E+01   0.796589220129E+00
 POTENTIAL ENERGY[hartree]    =         -0.172165359118E+02  -0.172184786463E+02
 KINETIC ENERGY [hartree]     =          0.204358966113E-03   0.121584290869E-02
 TEMPERATURE [K]              =                      43.021              255.955
 *******************************************************************************


 Number of electrons:                                                          8
 Number of occupied orbitals:                                                  4
 Number of molecular orbitals:                                                 4

 Number of orbital functions:                                                 23
 Number of independent orbital functions:                                     23

 Extrapolation method: ASPC


 SCF WAVEFUNCTION OPTIMIZATION

  ----------------------------------- OT ---------------------------------------
  Minimizer      : DIIS                : direct inversion
                                         in the iterative subspace
                                         using   7 DIIS vectors
                                         safer DIIS on
  Preconditioner : FULL_ALL            : diagonalization, state selective
  Precond_solver : DEFAULT
  stepsize       :    0.15000000                  energy_gap     :    0.08000000
  eps_taylor     :   0.10000E-15                  max_taylor     :             4
  ----------------------------------- OT ---------------------------------------

  Step     Update method      Time    Convergence         Total energy    Change
  ------------------------------------------------------------------------------
     1 OT DIIS     0.15E+00    6.8     0.00033720       -17.2164393245 -1.72E+01
     2 OT DIIS     0.15E+00   18.5     0.00013580       -17.2164403281 -1.00E-06
     3 OT DIIS     0.15E+00   23.6     0.00007766       -17.2164404747 -1.47E-07
     4 OT DIIS     0.15E+00   14.0     0.00000671       -17.2164405060 -3.13E-08
     5 OT DIIS     0.15E+00   10.5     0.00000126       -17.2164405064 -3.72E-10
     6 OT DIIS     0.15E+00   10.1     0.00000015       -17.2164405064 -1.55E-11

  *** SCF run converged in     6 steps ***


  Electronic density on regular grids:         -8.0000000417       -0.0000000417
  Core density on regular grids:                7.9999999998       -0.0000000002
  Total charge density on r-space grids:       -0.0000000419
  Total charge density g-space grids:          -0.0000000419

  Overlap energy of the core charge distribution:               0.00000003377908
  Self energy of the core charge distribution:                -44.34715499673765
  Core Hamiltonian energy:                                     12.85444323110807
  Hartree energy:                                              18.48758512289862
  Exchange-correlation energy:                                 -4.21130696278249
  Dispersion energy:                                           -0.00000693467856

  Total energy:                                               -17.21644050641294

  outer SCF iter =    1 RMS gradient =   0.15E-06 energy =        -17.2164405064
  outer SCF loop converged in   1 iterations or    6 steps


 MOMENTS
  The electric/magnetic moments are written to file:
  water_dimer_dipole.out


 ENERGY| Total FORCE_EVAL ( QS ) energy (a.u.):              -17.216440506415189


 Temperature scaled to requested temperature:      9.99 K  ->     10.00 K
 MD| Old VCOM =    -0.0000011425   -0.0000002063    0.0000006952 a.u.
 MD| New VCOM =     0.0000000000   -0.0000000000    0.0000000000 a.u
 MD| Old VANG =     0.0000001646   -0.0000016786    0.0000000577 a.u.
 MD| New VANG =    -0.0000000000    0.0000000000    0.0000000000 a.u

 *******************************************************************************
 ENSEMBLE TYPE                =                                              NVT
 STEP NUMBER                  =                                              116
 TIME [fs]                    =                                        58.000000
 CONSERVED QUANTITY [hartree] =                              -0.172178128308E+02

                                              INSTANTANEOUS             AVERAGES
 CPU TIME [s]                 =                       97.63                50.72
 ENERGY DRIFT PER ATOM [K]    =          0.312034590177E+01   0.816621605315E+00
 POTENTIAL ENERGY[hartree]    =         -0.172164405064E+02  -0.172184610762E+02
 KINETIC ENERGY [hartree]     =          0.475078684134E-04   0.120577105489E-02
 TEMPERATURE [K]              =                      10.001              253.835
 *******************************************************************************


 Number of electrons:                                                          8
 Number of occupied orbitals:                                                  4
 Number of molecular orbitals:                                                 4

 Number of orbital functions:                                                 23
 Number of independent orbital functions:                                     23

 Extrapolation method: ASPC


 SCF WAVEFUNCTION OPTIMIZATION

  ----------------------------------- OT ---------------------------------------
  Minimizer      : DIIS                : direct inversion
                                         in the iterative subspace
                                         using   7 DIIS vectors
                                         safer DIIS on
  Preconditioner : FULL_ALL            : diagonalization, state selective
  Precond_solver : DEFAULT
  stepsize       :    0.15000000                  energy_gap     :    0.08000000
  eps_taylor     :   0.10000E-15                  max_taylor     :             4
  ----------------------------------- OT ---------------------------------------

  Step     Update method      Time    Convergence         Total energy    Change
  ------------------------------------------------------------------------------
     1 OT DIIS     0.15E+00    9.4     0.00005851       -17.2165832020 -1.72E+01
