#     Step Nr.          Time[fs]        Kin.[a.u.]          Temp[K]            Pot.[a.u.]        Cons Qty[a.u.]        UsedTime[s]
         0            0.000000         0.001425067       300.000000000       -17.219267542       -17.217842475         0.000000000
         1            0.500000         0.001486046       312.837014541       -17.219434325       -17.217844364       124.720081569
         2            1.000000         0.001344907       283.125122584       -17.219505353       -17.217844641        40.652277712
         3            1.500000         0.001363366       287.010877077       -17.219492396       -17.217843826        40.775611858
         4            2.000000         0.001150552       242.210055070       -17.219418469       -17.217842575        40.844131840
         5            2.500000         0.001001791       210.893461778       -17.219308972       -17.217841306        40.515874885
         6            3.000000         0.001104557       232.527408668       -17.219159017       -17.217839965        40.565269561
         7            3.500000         0.000905624       190.648752893       -17.218997048       -17.217838856        40.420980158
         8            4.000000         0.000852326       179.428528084       -17.218840415       -17.217838263        40.572413232
         9            4.500000         0.000655571       138.008399889       -17.218706926       -17.217838279        40.696013787
        10            5.000000         0.000464166        97.714669775       -17.218573886       -17.217838523        40.271419283
        11            5.500000         0.000366455        77.144887727       -17.218463207       -17.217838411        40.403997395
        12            6.000000         0.000311535        65.583202383       -17.218379448       -17.217837861        40.631259876
        13            6.500000         0.000264422        55.665264454       -17.218310091       -17.217836648        40.589413022
        14            7.000000         0.000179004        37.683206169       -17.218281409       -17.217835275        40.403273701
        15            7.500000         0.000238082        50.120194191       -17.218320676       -17.217834913        40.558717637
        16            8.000000         0.000331036        69.688610004       -17.218446244       -17.217835920        40.385507226
        17            8.500000         0.000454027        95.580187562       -17.218616647       -17.217837712        41.049230261
        18            9.000000         0.000661762       139.311846757       -17.218819316       -17.217839874        40.735212968
        19            9.500000         0.000911796       191.948133344       -17.219034598       -17.217841846        40.606599124
        20           10.000000         0.001155634       243.279920698       -17.219215112       -17.217843017        40.357957231
        21           10.500000         0.001117831       235.321702598       -17.219337730       -17.217843288        40.652236419
        22           11.000000         0.001062153       223.600753251       -17.219394033       -17.217842984        40.763965819
        23           11.500000         0.001257641       264.753996838       -17.219406951       -17.217842429        40.411391428
        24           12.000000         0.001384198       291.396409614       -17.219381388       -17.217841773        40.601527394
        25           12.500000         0.001293392       272.280223404       -17.219326468       -17.217841282        40.551152694
        26           13.000000         0.000983669       207.078472395       -17.219253865       -17.217841199        40.628259064
        27           13.500000         0.000817980       172.198212917       -17.219176632       -17.217841529        40.815222144
        28           14.000000         0.000809049       170.318029539       -17.219085122       -17.217841989        40.638118388
        29           14.500000         0.000627418       132.081844955       -17.218973915       -17.217841975        40.414898088
        30           15.000000         0.000542111       114.123198376       -17.218831979       -17.217841054        40.794279000
        31           15.500000         0.000299970        63.148535709       -17.218691651       -17.217839543        40.232072023
        32           16.000000         0.000146941        30.933483240       -17.218613891       -17.217838801        40.591485018
        33           16.500000         0.000200241        42.153973277       -17.218566779       -17.217838831        47.399716977
        34           17.000000         0.000194654        40.977883783       -17.218562436       -17.217839157        47.523155243
        35           17.500000         0.000194150        40.871680216       -17.218599027       -17.217839558        42.564290963
        36           18.000000         0.000292831        61.645817091       -17.218673897       -17.217839850        40.298509000
        37           18.500000         0.000308933        65.035406021       -17.218773532       -17.217840170        40.664058079
        38           19.000000         0.000434907        91.555159583       -17.218886954       -17.217841002        40.551061897
        39           19.500000         0.000734497       154.623601207       -17.219043719       -17.217842436        40.381372799
        40           20.000000         0.000817936       172.188982707       -17.219181748       -17.217843495        43.234056398
        41           20.500000         0.001050237       221.092067122       -17.219290180       -17.217843904        35.392749240
        42           21.000000         0.001079850       227.326084473       -17.219363112       -17.217843611        44.407669743
        43           21.500000         0.001414742       297.826474691       -17.219393912       -17.217842832        40.415343134
        44           22.000000         0.001597210       336.238995569       -17.219380915       -17.217841903        40.891529903
        45           22.500000         0.001645447       346.393633318       -17.219321897       -17.217841098        40.288270179
        46           23.000000         0.001756696       369.813309833       -17.219210276       -17.217840415        40.561256391
        47           23.500000         0.001463360       308.061378710       -17.219057421       -17.217839833        40.857461639
        48           24.000000         0.001487805       313.207466001       -17.218874468       -17.217839359        40.339741852
        49           24.500000         0.001273853       268.167028731       -17.218645890       -17.217838790        40.604819471
        50           25.000000         0.001002738       211.092925205       -17.218392960       -17.217837898        40.391934717
        51           25.500000         0.000825089       173.694829215       -17.218084759       -17.217836056        40.683296180
        52           26.000000         0.000789373       166.176011550       -17.217742343       -17.217832646        40.443852227
        53           26.500000         0.000419102        88.227954744       -17.217357285       -17.217827143        40.251999973
        54           27.000000         0.000246468        51.885655312       -17.217073751       -17.217822180        47.042187347
        55           27.500000         0.000156475        32.940630052       -17.216966597       -17.217820380        40.552539987
        56           28.000000         0.000309576        65.170740399       -17.217053481       -17.217822500        40.423046203
        57           28.500000         0.000478785       100.792072343       -17.217304090       -17.217827257        41.003242405
        58           29.000000         0.000746688       157.190182404       -17.217623509       -17.217831905        40.192378969
        59           29.500000         0.001088388       229.123544283       -17.217961125       -17.217835005        40.986630551
        60           30.000000         0.001330648       280.123180847       -17.218257839       -17.217836038        40.630883222
        61           30.500000         0.001566615       329.798141545       -17.218512480       -17.217835620        47.045717115
        62           31.000000         0.001725111       363.164314304       -17.218712417       -17.217834867        40.491070760
        63           31.500000         0.001685297       354.782785166       -17.218895583       -17.217834529        40.705795141
        64           32.000000         0.001838875       387.113386595       -17.219055260       -17.217835070        46.849433356
        65           32.500000         0.002031503       427.664833815       -17.219210396       -17.217836693        40.559039799
        66           33.000000         0.002343643       493.375270065       -17.219336270       -17.217839138        41.443087874
        67           33.500000         0.002678031       563.769522588       -17.219376050       -17.217841562        40.233758586
        68           34.000000         0.002988606       629.150612300       -17.219264099       -17.217842783        40.615900012
        69           34.500000         0.002244714       472.549092198       -17.218981385       -17.217840987        40.648151694
        70           35.000000         0.001674878       352.589272766       -17.218583504       -17.217836309        40.274511166
        71           35.500000         0.001312093       276.217190135       -17.218110891       -17.217829751        40.576611476
        72           36.000000         0.000841504       177.150476307       -17.217709147       -17.217824815        47.223888642
        73           36.500000         0.000503361       105.965790541       -17.217453417       -17.217823910        40.508246716
        74           37.000000         0.000372566        78.431192757       -17.217357141       -17.217826840        40.764324180
        75           37.500000         0.000503603       106.016634334       -17.217367007       -17.217831258        40.419531087
        76           38.000000         0.000435625        91.706182878       -17.217417470       -17.217834126        40.842521443
        77           38.500000         0.000533261       112.260224652       -17.217465276       -17.217834132        40.638705668
        78           39.000000         0.000660316       139.007326147       -17.217489939       -17.217830971        40.407007537
        79           39.500000         0.000744573       156.744930396       -17.217519385       -17.217826538        40.559201009
        80           40.000000         0.000687389       144.706602572       -17.217619552       -17.217823480        40.383948919
        81           40.500000         0.001034124       217.700080498       -17.217845677       -17.217823107        48.285158547
        82           41.000000         0.001461533       307.676762660       -17.218204492       -17.217825951        64.156145461
        83           41.500000         0.002032582       427.891961871       -17.218661145       -17.217831611        83.398077375
        84           42.000000         0.002674336       562.991685981       -17.219122426       -17.217838554        64.396500834
        85           42.500000         0.003182565       669.982247859       -17.219465883       -17.217844188        58.696490223
        86           43.000000         0.003075589       647.462084299       -17.219571458       -17.217845469        59.941643766
        87           43.500000         0.003173512       668.076505854       -17.219432285       -17.217841664        46.740951786
        88           44.000000         0.002947528       620.503158411       -17.219095794       -17.217834196        59.393925761
        89           44.500000         0.002265738       476.975050728       -17.218677974       -17.217827003        63.528685282
        90           45.000000         0.001853183       390.125394298       -17.218290735       -17.217823817        58.403783988
        91           45.500000         0.001450558       305.366230027       -17.218021241       -17.217825504        76.114887404
        92           46.000000         0.001246572       262.423972410       -17.217820983       -17.217829632        61.947774323
        93           46.500000         0.001100238       231.618075865       -17.217626538       -17.217832490        63.597911526
        94           47.000000         0.001035473       217.984013002       -17.217375775       -17.217831675       113.625717309
        95           47.500000         0.000798602       168.118815624       -17.217049932       -17.217826788       102.857241503
        96           48.000000         0.000335080        70.539935144       -17.216731212       -17.217820270        60.755220096
        97           48.500000         0.000172699        36.355909924       -17.216572154       -17.217815947        86.273904467
        98           49.000000         0.000179280        37.741385885       -17.216613813       -17.217814557        43.058359850
        99           49.500000         0.000482572       101.589393138       -17.216882993       -17.217816576        67.503084150
       100           50.000000         0.000859623       180.964836296       -17.217329231       -17.217821565        54.974137932
       101           50.500000         0.001562256       328.880581352       -17.217898056       -17.217828714        57.327415505
       102           51.000000         0.002282769       480.560370209       -17.218482375       -17.217836214        61.561868030
       103           51.500000         0.002873777       604.977259866       -17.218941199       -17.217841201        49.321267515
       104           52.000000         0.003259691       686.218416484       -17.219195168       -17.217841371       100.291684771
       105           52.500000         0.002722779       573.189688016       -17.219229621       -17.217836677        62.013038615
       106           53.000000         0.002980014       627.341896459       -17.219139844       -17.217830068        56.021168418
       107           53.500000         0.002806657       590.847505144       -17.219004097       -17.217825386        79.319659046
       108           54.000000         0.002498499       525.975153467       -17.218908111       -17.217826276        74.310565707
       109           54.500000         0.002433880       512.371652672       -17.218840342       -17.217831576        70.478060668
       110           55.000000         0.002436889       513.005113791       -17.218718186       -17.217837054       104.350933873
       111           55.500000         0.002203249       463.820130469       -17.218454660       -17.217838514        68.949912191
       112           56.000000         0.001964248       413.506485116       -17.218017372       -17.217834564        52.525431952
       113           56.500000         0.001215980       255.983706355       -17.217473142       -17.217827055       103.322599205
       114           57.000000         0.000758246       159.623320188       -17.216936753       -17.217819067        56.698808136
       115           57.500000         0.000204359        43.020920380       -17.216535912       -17.217813408        78.300885210
       116           58.000000         0.000047508        10.001186947       -17.216440506       -17.217812831        97.631017048
       117           58.500000         0.000156356        32.915562606       -17.216583232       -17.217816319        82.858700578
       118           59.000000         0.000433109        91.176502676       -17.216915972       -17.217823075        48.068850647
       119           59.500000         0.000803549       169.160217448       -17.217325902       -17.217830533       103.726835255
       120           60.000000         0.000799433       168.293720473       -17.217675458       -17.217835296        68.420530957
       121           60.500000         0.001158996       243.987766281       -17.217946513       -17.217836532        57.530388842
       122           61.000000         0.001387601       292.112794684       -17.218168366       -17.217834254        80.026682671
       123           61.500000         0.001621928       341.442570676       -17.218355818       -17.217830130        88.828106637
       124           62.000000         0.001608872       338.694024809       -17.218574736       -17.217827652        59.361906828
       125           62.500000         0.001537181       323.601895334       -17.218840174       -17.217829539        51.451036640
       126           63.000000         0.001854397       390.381109653       -17.219163018       -17.217835389       106.933874847
       127           63.500000         0.002341677       492.961501156       -17.219463159       -17.217842320        67.559298445
       128           64.000000         0.002386079       502.308847998       -17.219616333       -17.217846366        49.953059734
       129           64.500000         0.002329019       490.296867559       -17.219564088       -17.217845946        45.017979067
       130           65.000000         0.002316167       487.591206415       -17.219307537       -17.217841629        61.409341062
       131           65.500000         0.001978885       416.587892695       -17.218895923       -17.217835194        43.622658608
       132           66.000000         0.001228675       258.656270858       -17.218482235       -17.217829745        80.179826498
       133           66.500000         0.000944774       198.890423208       -17.218092556       -17.217826028        52.781882926
       134           67.000000         0.000702357       147.857637755       -17.217814567       -17.217825090        88.348464681
       135           67.500000         0.000565953       119.142303593       -17.217663702       -17.217826752        51.134915833
       136           68.000000         0.000506003       106.521857644       -17.217611461       -17.217830055        79.812715840
       137           68.500000         0.000599143       126.129368609       -17.217610004       -17.217833328        54.868445772
       138           69.000000         0.000576938       121.454913978       -17.217586240       -17.217835020        87.060733002
       139           69.500000         0.000481042       101.267217196       -17.217511004       -17.217832467        69.409373642
       140           70.000000         0.000645055       135.794603469       -17.217424045       -17.217826411        61.455674492
       141           70.500000         0.000828014       174.310636057       -17.217367229       -17.217816940        83.574976896
       142           71.000000         0.000874349       184.064870376       -17.217466207       -17.217810500        69.765146463
       143           71.500000         0.001049389       220.913558355       -17.217803393       -17.217812904        48.563612455
       144           72.000000         0.001600583       336.949072361       -17.218341630       -17.217823494        57.552932346
       145           72.500000         0.002234916       470.486504383       -17.218938936       -17.217836706        55.668325979
       146           73.000000         0.002446890       515.110619195       -17.219401796       -17.217845787        56.249161910
       147           73.500000         0.002568332       540.676060908       -17.219577977       -17.217847130        79.642655914
       148           74.000000         0.002396224       504.444425704       -17.219463366       -17.217841730        54.349575097
       149           74.500000         0.002087314       439.413958306       -17.219144277       -17.217833041        98.009370094
       150           75.000000         0.001816755       382.456822747       -17.218752324       -17.217824564        50.219260684
       151           75.500000         0.001517197       319.394828927       -17.218384667       -17.217818547        56.284027600
       152           76.000000         0.001285024       270.518685885       -17.218174528       -17.217817382        55.643836952
       153           76.500000         0.001020345       214.799334205       -17.218139415       -17.217821066        58.712492118
       154           77.000000         0.001387499       292.091321003       -17.218216915       -17.217828422        64.223043397
       155           77.500000         0.001289075       271.371509553       -17.218290436       -17.217836679        55.605741804
       156           78.000000         0.001292848       272.165660830       -17.218231289       -17.217841292        92.590398570
       157           78.500000         0.000976860       205.645093574       -17.217975009       -17.217838579        53.070493715
       158           79.000000         0.000575955       121.247901309       -17.217593702       -17.217828572        42.485525050
       159           79.500000         0.000288951        60.828911226       -17.217185365       -17.217814455        51.155381505
       160           80.000000         0.000107265        22.580983199       -17.216958667       -17.217804099        71.011427978
       161           80.500000         0.000439870        92.599944384       -17.217082382       -17.217804913        75.587579720
       162           81.000000         0.001229656       258.862881429       -17.217667325       -17.217819529       109.258001020
       163           81.500000         0.001866425       392.913122884       -17.218385456       -17.217835714        66.793825070
       164           82.000000         0.002310773       486.455591431       -17.218902864       -17.217843373        51.721580435
       165           82.500000         0.002498370       525.948017841       -17.219117797       -17.217841847        62.567954824
       166           83.000000         0.002702649       568.952032044       -17.219063175       -17.217834322        59.134882710
       167           83.500000         0.002357281       496.246399366       -17.218813819       -17.217824096        80.863821621
       168           84.000000         0.002088609       439.686479154       -17.218555168       -17.217816609        76.852671064
       169           84.500000         0.002053075       432.205930328       -17.218377326       -17.217813012        65.840375198
       170           85.000000         0.002039265       429.298705768       -17.218344123       -17.217814368        79.842655500
       171           85.500000         0.002121055       446.516966900       -17.218435145       -17.217820220        58.533138817
       172           86.000000         0.002136849       449.841849319       -17.218561842       -17.217828539       104.707619916
       173           86.500000         0.002364877       497.845428047       -17.218600052       -17.217836827        87.454258853
       174           87.000000         0.002594610       546.208083991       -17.218369674       -17.217840240        57.507719868
       175           87.500000         0.001995212       420.024875091       -17.217809448       -17.217833095        88.896823995
       176           88.000000         0.001239202       260.872476103       -17.216988329       -17.217815226        64.087224416
       177           88.500000         0.000627335       132.064375700       -17.216205407       -17.217794805        65.214377035
       178           89.000000         0.000121046        25.482108346       -17.215744449       -17.217783310        58.329387486
       179           89.500000         0.000204759        43.105234460       -17.215833899       -17.217788930        97.719583865
       180           90.000000         0.000884415       186.183956785       -17.216359838       -17.217806514        62.844087374
       181           90.500000         0.001518633       319.697184553       -17.217102298       -17.217825518        88.013938727
       182           91.000000         0.002196105       462.316213749       -17.217670921       -17.217834264        71.120453220
       183           91.500000         0.002319857       488.368042721       -17.217947782       -17.217831434        70.028005260
       184           92.000000         0.002206105       464.421269577       -17.217925372       -17.217821630       121.197862693
       185           92.500000         0.002283232       480.657890974       -17.217779435       -17.217810968        45.828445547
       186           93.000000         0.002407567       506.832481128       -17.217652899       -17.217801845        52.395939084
       187           93.500000         0.002616894       550.899155409       -17.217672158       -17.217797423        70.075696072
       188           94.000000         0.002742965       577.439115841       -17.217902392       -17.217799423        54.144245282
       189           94.500000         0.003018361       635.414667335       -17.218311540       -17.217807941        59.353122177
       190           95.000000         0.003918435       824.894856560       -17.218767764       -17.217821228        65.219202651
       191           95.500000         0.003834294       807.181938861       -17.219064835       -17.217835056        99.736718314
       192           96.000000         0.004401710       926.632360841       -17.218967981       -17.217841998        53.789583567
       193           96.500000         0.003768804       793.395261536       -17.218347745       -17.217834412        56.442647640
       194           97.000000         0.003000110       631.572411836       -17.217304220       -17.217810937        88.716259516
       195           97.500000         0.002062929       434.280428813       -17.216160758       -17.217782086        78.406687406
       196           98.000000         0.001385512       291.672951357       -17.215378633       -17.217767576        74.975981294
       197           98.500000         0.001251053       263.367273993       -17.215153726       -17.217776683        65.275956960
       198           99.000000         0.001536109       323.376130813       -17.215368744       -17.217799313        81.530418883
       199           99.500000         0.001769818       372.575852219       -17.215673915       -17.217816631        89.182552255
       200          100.000000         0.001724593       363.055151016       -17.215788153       -17.217819669        66.866435305
       201          100.500000         0.001661509       349.774914537       -17.215680452       -17.217811987        75.300502941
       202          101.000000         0.001446290       304.467876793       -17.215446780       -17.217800074       109.269148327
       203          101.500000         0.001108115       233.276370110       -17.215279868       -17.217790168       114.385141464
       204          102.000000         0.001067245       224.672506486       -17.215335649       -17.217784732        43.656373104
       205          102.500000         0.001794559       377.784210483       -17.215700003       -17.217785010        79.746803993
       206          103.000000         0.002551840       537.204338568       -17.216413064       -17.217791480        58.223664551
       207          103.500000         0.003074102       647.149025636       -17.217263421       -17.217802475        77.181205056
       208          104.000000         0.003897080       820.399274856       -17.218104989       -17.217815701        57.291557048
       209          104.500000         0.005023007      1057.425614141       -17.218780152       -17.217827134        93.588297889
       210          105.000000         0.005539764      1166.211394052       -17.219091077       -17.217830478        63.358258513
       211          105.500000         0.005385859      1133.811817140       -17.218945549       -17.217822061        64.231736070
       212          106.000000         0.005424645      1141.976847264       -17.218478170       -17.217806693        71.332106363
       213          106.500000         0.004565189       961.047222464       -17.217929265       -17.217794832        61.437418064
       214          107.000000         0.004188175       881.679627533       -17.217441426       -17.217793411        72.260975739
       215          107.500000         0.003982331       838.346098222       -17.217057037       -17.217800396        78.390884517
       216          108.000000         0.003359940       707.322574230       -17.216677472       -17.217807432        49.791546994
       217          108.500000         0.003208052       675.347710390       -17.216199486       -17.217808606        77.746874820
       218          109.000000         0.002922221       615.175633851       -17.215519513       -17.217802217        78.768312739
       219          109.500000         0.001769847       372.581947985       -17.214752657       -17.217792191        52.757324929
       220          110.000000         0.000755714       159.090129570       -17.214110893       -17.217783226        60.575552816
       221          110.500000         0.000416609        87.703074836       -17.213795807       -17.217778196        72.251795579
       222          111.000000         0.000480676       101.190175242       -17.213837239       -17.217776990        75.955461161
       223          111.500000         0.001151812       242.475336864       -17.214272643       -17.217779877        79.353686682
       224          112.000000         0.001809352       380.898246954       -17.215008072       -17.217786934        60.268234710
       225          112.500000         0.002731448       575.014695693       -17.215907632       -17.217797332        69.912360483
       226          113.000000         0.003991156       840.203953650       -17.216896705       -17.217809811        61.187786710
       227          113.500000         0.004698497       989.110736051       -17.217713120       -17.217818658        48.119175120