#     Step Nr.          Time[fs]        Kin.[a.u.]          Temp[K]            Pot.[a.u.]        Cons Qty[a.u.]        UsedTime[s]
         0            0.000000         0.001425067       300.000000000       -17.219267542       -17.217842475         0.000000000
         1            0.500000         0.001486046       312.837014541       -17.219434325       -17.217844364       130.694198512
         2            1.000000         0.001344907       283.125122584       -17.219505353       -17.217844641        33.288531247
         3            1.500000         0.001363366       287.010877077       -17.219492396       -17.217843826        44.184485579
         4            2.000000         0.001150552       242.210055070       -17.219418469       -17.217842575        44.302738832
         5            2.500000         0.001001791       210.893461778       -17.219308972       -17.217841306        29.789356558
         6            3.000000         0.001104557       232.527408668       -17.219159017       -17.217839965        40.895126497
         7            3.500000         0.000905624       190.648752893       -17.218997048       -17.217838856        44.249519647
         8            4.000000         0.000852326       179.428528084       -17.218840415       -17.217838263        44.223876704
         9            4.500000         0.000655571       138.008399889       -17.218706926       -17.217838279        38.605143408
        10            5.000000         0.000464166        97.714669774       -17.218573886       -17.217838523        41.018409045
        11            5.500000         0.000366455        77.144887727       -17.218463207       -17.217838411        29.041293858
        12            6.000000         0.000311535        65.583202384       -17.218379448       -17.217837861        35.963644656
        13            6.500000         0.000264422        55.665264454       -17.218310091       -17.217836648        43.865567788
        14            7.000000         0.000179004        37.683206169       -17.218281409       -17.217835275        35.194828768
        15            7.500000         0.000238082        50.120194191       -17.218320676       -17.217834913        44.209508213
        16            8.000000         0.000331036        69.688610004       -17.218446244       -17.217835920        33.107129143
        17            8.500000         0.000454027        95.580187563       -17.218616647       -17.217837712        30.938562872
        18            9.000000         0.000661762       139.311846758       -17.218819316       -17.217839874        37.430694561
        19            9.500000         0.000911796       191.948133344       -17.219034598       -17.217841846        29.167793089
        20           10.000000         0.001155634       243.279920698       -17.219215112       -17.217843017        39.387325089
        21           10.500000         0.001117831       235.321702598       -17.219337730       -17.217843288        28.672449869
        22           11.000000         0.001062153       223.600753252       -17.219394033       -17.217842984        30.702682683
        23           11.500000         0.001257641       264.753996838       -17.219406951       -17.217842429        41.424887453
        24           12.000000         0.001384198       291.396409614       -17.219381388       -17.217841773        28.446300624
        25           12.500000         0.001293392       272.280223403       -17.219326468       -17.217841282        39.405652253
        26           13.000000         0.000983669       207.078472393       -17.219253865       -17.217841199        31.637938420
        27           13.500000         0.000817980       172.198212915       -17.219176632       -17.217841529        32.995537406
        28           14.000000         0.000809049       170.318029538       -17.219085122       -17.217841989        31.895941799
        29           14.500000         0.000627418       132.081844954       -17.218973915       -17.217841975        30.576291942
        30           15.000000         0.000542111       114.123198376       -17.218831979       -17.217841054        44.629437922
        31           15.500000         0.000299970        63.148535710       -17.218691651       -17.217839543        44.346668811
        32           16.000000         0.000146941        30.933483241       -17.218613891       -17.217838801        43.731643571
        33           16.500000         0.000200241        42.153973277       -17.218566779       -17.217838831        49.456687378
        34           17.000000         0.000194654        40.977883783       -17.218562436       -17.217839157        49.118007179
        35           17.500000         0.000194150        40.871680216       -17.218599027       -17.217839558        42.435567989
        36           18.000000         0.000292831        61.645817091       -17.218673897       -17.217839850        42.222326957
        37           18.500000         0.000308933        65.035406021       -17.218773532       -17.217840170        44.025554636
        38           19.000000         0.000434907        91.555159583       -17.218886954       -17.217841002        40.814662160
        39           19.500000         0.000734497       154.623601207       -17.219043719       -17.217842436        35.319998393
        40           20.000000         0.000817936       172.188982707       -17.219181748       -17.217843495        43.856028345
        41           20.500000         0.001050237       221.092067121       -17.219290180       -17.217843904        36.624247292
        42           21.000000         0.001079850       227.326084472       -17.219363112       -17.217843611        40.354877025
        43           21.500000         0.001414742       297.826474689       -17.219393912       -17.217842832        28.734641167
        44           22.000000         0.001597210       336.238995567       -17.219380915       -17.217841903        32.694915215
        45           22.500000         0.001645447       346.393633315       -17.219321897       -17.217841098        43.540231989
        46           23.000000         0.001756696       369.813309831       -17.219210276       -17.217840415        29.006312196
        47           23.500000         0.001463360       308.061378709       -17.219057421       -17.217839833        31.335761886
        48           24.000000         0.001487805       313.207466001       -17.218874468       -17.217839359        36.652299739
        49           24.500000         0.001273853       268.167028731       -17.218645890       -17.217838790        44.165685718
        50           25.000000         0.001002738       211.092925204       -17.218392960       -17.217837898        33.168018725
        51           25.500000         0.000825089       173.694829214       -17.218084759       -17.217836056        39.067877329
        52           26.000000         0.000789373       166.176011549       -17.217742343       -17.217832646        28.539689677
        53           26.500000         0.000419102        88.227954743       -17.217357285       -17.217827143        41.536296278
        54           27.000000         0.000246468        51.885655311       -17.217073751       -17.217822180        50.772508712
        55           27.500000         0.000156475        32.940630053       -17.216966597       -17.217820380        38.697274652
        56           28.000000         0.000309576        65.170740400       -17.217053481       -17.217822500        38.054300092
        57           28.500000         0.000478785       100.792072344       -17.217304090       -17.217827257        40.401471027
        58           29.000000         0.000746688       157.190182404       -17.217623509       -17.217831905        44.426555075
        59           29.500000         0.001088388       229.123544282       -17.217961125       -17.217835005        44.222735375
        60           30.000000         0.001330648       280.123180845       -17.218257839       -17.217836038        43.792741134
        61           30.500000         0.001566615       329.798141543       -17.218512480       -17.217835620        33.431168497
        62           31.000000         0.001725111       363.164314303       -17.218712417       -17.217834867        34.164082376
        63           31.500000         0.001685297       354.782785166       -17.218895583       -17.217834529        28.795647251
        64           32.000000         0.001838875       387.113386593       -17.219055260       -17.217835070        51.706786160
        65           32.500000         0.002031503       427.664833814       -17.219210396       -17.217836693        30.337596705
        66           33.000000         0.002343643       493.375270063       -17.219336270       -17.217839138        32.820197526
        67           33.500000         0.002678031       563.769522586       -17.219376050       -17.217841562        39.951206599
        68           34.000000         0.002988606       629.150612297       -17.219264099       -17.217842783        37.041512588
        69           34.500000         0.002244714       472.549092195       -17.218981385       -17.217840987        36.546825518
        70           35.000000         0.001674878       352.589272764       -17.218583504       -17.217836309        28.483666716
        71           35.500000         0.001312093       276.217190133       -17.218110891       -17.217829751        28.674910930
        72           36.000000         0.000841504       177.150476306       -17.217709147       -17.217824815        33.436721213
        73           36.500000         0.000503361       105.965790541       -17.217453417       -17.217823910        31.889265393
        74           37.000000         0.000372566        78.431192757       -17.217357141       -17.217826840        30.804212928
        75           37.500000         0.000503603       106.016634335       -17.217367007       -17.217831258        30.440705520
        76           38.000000         0.000435625        91.706182878       -17.217417470       -17.217834126        28.334837149
        77           38.500000         0.000533261       112.260224652       -17.217465276       -17.217834132        32.475549097
        78           39.000000         0.000660316       139.007326147       -17.217489939       -17.217830971        37.036415676
        79           39.500000         0.000744573       156.744930395       -17.217519385       -17.217826538        30.384917877
        80           40.000000         0.000687389       144.706602570       -17.217619552       -17.217823480        28.777282998
        81           40.500000         0.001034124       217.700080496       -17.217845677       -17.217823107        44.293219533
        82           41.000000         0.001461533       307.676762658       -17.218204492       -17.217825951        33.215553610
        83           41.500000         0.002032582       427.891961868       -17.218661145       -17.217831611        28.914671674
        84           42.000000         0.002674336       562.991685977       -17.219122426       -17.217838554        28.655060116
        85           42.500000         0.003182565       669.982247855       -17.219465883       -17.217844188        31.307695906
        86           43.000000         0.003075589       647.462084294       -17.219571458       -17.217845469        44.436716109
        87           43.500000         0.003173512       668.076505849       -17.219432285       -17.217841664        36.881529172
        88           44.000000         0.002947528       620.503158408       -17.219095794       -17.217834196        31.180107490
        89           44.500000         0.002265738       476.975050726       -17.218677974       -17.217827003        43.938266143
        90           45.000000         0.001853183       390.125394296       -17.218290735       -17.217823817        43.763444528
        91           45.500000         0.001450558       305.366230025       -17.218021241       -17.217825504        44.978044291
        92           46.000000         0.001246572       262.423972410       -17.217820983       -17.217829632        44.465616117
        93           46.500000         0.001100238       231.618075865       -17.217626538       -17.217832490        39.560045809
        94           47.000000         0.001035473       217.984013002       -17.217375775       -17.217831675        30.562614950
        95           47.500000         0.000798602       168.118815623       -17.217049932       -17.217826788        32.600358097
        96           48.000000         0.000335080        70.539935144       -17.216731212       -17.217820270        43.925170394
        97           48.500000         0.000172699        36.355909924       -17.216572154       -17.217815947        34.505373241
        98           49.000000         0.000179280        37.741385884       -17.216613813       -17.217814557        36.949581135
        99           49.500000         0.000482572       101.589393138       -17.216882993       -17.217816576        44.451320079
       100           50.000000         0.000859623       180.964836296       -17.217329231       -17.217821565        44.086535849
       101           50.500000         0.001562256       328.880581351       -17.217898056       -17.217828714        44.107124141
       102           51.000000         0.002282769       480.560370207       -17.218482375       -17.217836214        35.634230130
       103           51.500000         0.002873777       604.977259863       -17.218941199       -17.217841201        39.344290795
       104           52.000000         0.003259691       686.218416480       -17.219195168       -17.217841371        30.655990441
       105           52.500000         0.002722779       573.189688013       -17.219229621       -17.217836677        45.593543645
       106           53.000000         0.002980014       627.341896456       -17.219139844       -17.217830068        31.346784470
       107           53.500000         0.002806657       590.847505141       -17.219004097       -17.217825386        40.347895338
       108           54.000000         0.002498499       525.975153465       -17.218908111       -17.217826276        43.019115245
       109           54.500000         0.002433880       512.371652670       -17.218840342       -17.217831576        31.118790296
       110           55.000000         0.002436889       513.005113788       -17.218718186       -17.217837054        32.659912383
       111           55.500000         0.002203249       463.820130466       -17.218454660       -17.217838514        30.657575434
       112           56.000000         0.001964248       413.506485113       -17.218017372       -17.217834564        31.907344752
       113           56.500000         0.001215980       255.983706353       -17.217473142       -17.217827055        42.927062728
       114           57.000000         0.000758246       159.623320186       -17.216936753       -17.217819067        35.853333264
       115           57.500000         0.000204359        43.020920380       -17.216535912       -17.217813408        39.145912959
       116           58.000000         0.000047508        10.001186947       -17.216440506       -17.217812831        39.999073704
       117           58.500000         0.000156356        32.915562606       -17.216583232       -17.217816319        26.674022962
       118           59.000000         0.000433109        91.176502676       -17.216915972       -17.217823075        40.910547920
       119           59.500000         0.000803549       169.160217448       -17.217325902       -17.217830533        43.376933184
       120           60.000000         0.000799433       168.293720473       -17.217675458       -17.217835296        33.907487070
       121           60.500000         0.001158996       243.987766281       -17.217946513       -17.217836532        30.165881549
       122           61.000000         0.001387601       292.112794683       -17.218168366       -17.217834254        44.146701744
       123           61.500000         0.001621928       341.442570674       -17.218355818       -17.217830130        39.657752209
       124           62.000000         0.001608872       338.694024807       -17.218574736       -17.217827652        28.457291016
       125           62.500000         0.001537181       323.601895331       -17.218840174       -17.217829539        28.722038256
       126           63.000000         0.001854397       390.381109649       -17.219163018       -17.217835389        43.875867766
       127           63.500000         0.002341677       492.961501152       -17.219463159       -17.217842320        36.673153618
       128           64.000000         0.002386079       502.308847994       -17.219616333       -17.217846366        29.362418859
       129           64.500000         0.002329019       490.296867555       -17.219564088       -17.217845946        31.377164460
       130           65.000000         0.002316167       487.591206412       -17.219307537       -17.217841629        42.794961948
       131           65.500000         0.001978885       416.587892692       -17.218895923       -17.217835194        39.151095694
       132           66.000000         0.001228675       258.656270855       -17.218482235       -17.217829745        39.269044281
       133           66.500000         0.000944774       198.890423206       -17.218092556       -17.217826028        32.798663264
       134           67.000000         0.000702357       147.857637753       -17.217814567       -17.217825090        44.434000622
       135           67.500000         0.000565953       119.142303591       -17.217663702       -17.217826752        33.560487279
       136           68.000000         0.000506003       106.521857643       -17.217611461       -17.217830055        39.586792360
       137           68.500000         0.000599143       126.129368609       -17.217610004       -17.217833328        30.874011373
       138           69.000000         0.000576938       121.454913978       -17.217586240       -17.217835020        36.327493898
       139           69.500000         0.000481042       101.267217197       -17.217511004       -17.217832467        51.659248496
       140           70.000000         0.000645055       135.794603470       -17.217424045       -17.217826411        31.976556893
       141           70.500000         0.000828014       174.310636057       -17.217367229       -17.217816940        31.464783282
       142           71.000000         0.000874349       184.064870375       -17.217466207       -17.217810500        51.631927257
       143           71.500000         0.001049389       220.913558353       -17.217803393       -17.217812904        32.890104013
       144           72.000000         0.001600583       336.949072358       -17.218341630       -17.217823494        31.137658105
       145           72.500000         0.002234916       470.486504380       -17.218938936       -17.217836706        41.010107065
       146           73.000000         0.002446890       515.110619192       -17.219401796       -17.217845787        31.429704991
       147           73.500000         0.002568332       540.676060906       -17.219577977       -17.217847130        31.457243998
       148           74.000000         0.002396224       504.444425702       -17.219463366       -17.217841730        36.662285428
       149           74.500000         0.002087314       439.413958304       -17.219144277       -17.217833041        36.297921381
       150           75.000000         0.001816755       382.456822745       -17.218752324       -17.217824564        36.630784461
       151           75.500000         0.001517197       319.394828925       -17.218384667       -17.217818547        42.095434675
       152           76.000000         0.001285024       270.518685883       -17.218174528       -17.217817382        50.017146963
       153           76.500000         0.001020345       214.799334204       -17.218139415       -17.217821066        32.543099272
       154           77.000000         0.001387499       292.091321002       -17.218216915       -17.217828422        28.473898847
       155           77.500000         0.001289075       271.371509553       -17.218290436       -17.217836679        28.646661968
       156           78.000000         0.001292848       272.165660832       -17.218231289       -17.217841292        24.326581085
       157           78.500000         0.000976860       205.645093575       -17.217975009       -17.217838579        36.839940251
       158           79.000000         0.000575955       121.247901311       -17.217593702       -17.217828572        40.416492281
       159           79.500000         0.000288951        60.828911227       -17.217185365       -17.217814455        35.144071752
       160           80.000000         0.000107265        22.580983199       -17.216958667       -17.217804099        44.408154306
       161           80.500000         0.000439870        92.599944382       -17.217082382       -17.217804913        50.870528988
       162           81.000000         0.001229656       258.862881426       -17.217667325       -17.217819529        36.382152321
       163           81.500000         0.001866425       392.913122882       -17.218385456       -17.217835714        29.067983499
       164           82.000000         0.002310773       486.455591431       -17.218902864       -17.217843373        31.319857019
       165           82.500000         0.002498370       525.948017842       -17.219117797       -17.217841847        42.849060373
       166           83.000000         0.002702649       568.952032045       -17.219063175       -17.217834322        37.297573998
       167           83.500000         0.002357281       496.246399368       -17.218813819       -17.217824096        40.316565393
       168           84.000000         0.002088609       439.686479154       -17.218555168       -17.217816609        51.472886070
       169           84.500000         0.002053075       432.205930326       -17.218377326       -17.217813012        43.731196434
       170           85.000000         0.002039265       429.298705764       -17.218344123       -17.217814368        43.135708766
       171           85.500000         0.002121055       446.516966896       -17.218435145       -17.217820220        43.842494494
       172           86.000000         0.002136849       449.841849317       -17.218561842       -17.217828539        31.388108876
       173           86.500000         0.002364877       497.845428047       -17.218600052       -17.217836827        40.194861771
       174           87.000000         0.002594610       546.208083993       -17.218369674       -17.217840240        35.070064215
       175           87.500000         0.001995212       420.024875094       -17.217809448       -17.217833095        50.609475638
       176           88.000000         0.001239202       260.872476106       -17.216988329       -17.217815226        44.728514782
       177           88.500000         0.000627335       132.064375701       -17.216205407       -17.217794805        51.551559934
       178           89.000000         0.000121046        25.482108345       -17.215744449       -17.217783310        38.551391109
       179           89.500000         0.000204759        43.105234458       -17.215833899       -17.217788930        37.397585280
       180           90.000000         0.000884415       186.183956783       -17.216359838       -17.217806514        30.040753623
       181           90.500000         0.001518633       319.697184553       -17.217102298       -17.217825518        43.462933102
       182           91.000000         0.002196105       462.316213752       -17.217670921       -17.217834264        33.297964845
       183           91.500000         0.002319857       488.368042725       -17.217947782       -17.217831434        30.701401863
       184           92.000000         0.002206105       464.421269581       -17.217925372       -17.217821630        45.979391121
       185           92.500000         0.002283232       480.657890976       -17.217779435       -17.217810968        31.065879365
       186           93.000000         0.002407567       506.832481127       -17.217652899       -17.217801845        34.148514837
       187           93.500000         0.002616894       550.899155406       -17.217672158       -17.217797423        39.333826735
       188           94.000000         0.002742965       577.439115835       -17.217902392       -17.217799423        33.850408852
       189           94.500000         0.003018361       635.414667329       -17.218311540       -17.217807941        30.794213942
       190           95.000000         0.003918435       824.894856556       -17.218767764       -17.217821228        44.129096362
       191           95.500000         0.003834294       807.181938860       -17.219064835       -17.217835056        44.221886288
       192           96.000000         0.004401710       926.632360843       -17.218967981       -17.217841998        41.528084493
       193           96.500000         0.003768804       793.395261541       -17.218347745       -17.217834412        38.524363812
       194           97.000000         0.003000110       631.572411841       -17.217304220       -17.217810937        44.394702392
       195           97.500000         0.002062929       434.280428815       -17.216160758       -17.217782086        42.474039418
       196           98.000000         0.001385512       291.672951356       -17.215378633       -17.217767576        42.419125813
       197           98.500000         0.001251053       263.367273990       -17.215153726       -17.217776683        37.986940914
       198           99.000000         0.001536109       323.376130810       -17.215368744       -17.217799313        45.145874183
       199           99.500000         0.001769818       372.575852220       -17.215673915       -17.217816631        44.146757446
       200          100.000000         0.001724593       363.055151021       -17.215788153       -17.217819669        35.016242946
       201          100.500000         0.001661509       349.774914544       -17.215680452       -17.217811987        44.012351233
       202          101.000000         0.001446290       304.467876799       -17.215446780       -17.217800074        39.967948855
       203          101.500000         0.001108115       233.276370113       -17.215279868       -17.217790168        51.438794805
       204          102.000000         0.001067245       224.672506485       -17.215335649       -17.217784732        40.271716718
       205          102.500000         0.001794559       377.784210479       -17.215700003       -17.217785010        40.725947193
       206          103.000000         0.002551840       537.204338563       -17.216413064       -17.217791480        42.695517873
       207          103.500000         0.003074102       647.149025632       -17.217263421       -17.217802475        33.927822796
       208          104.000000         0.003897080       820.399274855       -17.218104989       -17.217815701        28.720586079
       209          104.500000         0.005023007      1057.425614144       -17.218780152       -17.217827134        33.233419301
       210          105.000000         0.005539764      1166.211394057       -17.219091077       -17.217830478        29.106275244
       211          105.500000         0.005385859      1133.811817146       -17.218945549       -17.217822061        36.624087199
       212          106.000000         0.005424645      1141.976847267       -17.218478170       -17.217806693        35.167148187
       213          106.500000         0.004565189       961.047222464       -17.217929265       -17.217794832        43.269843771
       214          107.000000         0.004188175       881.679627530       -17.217441426       -17.217793411        47.153164161
       215          107.500000         0.003982331       838.346098217       -17.217057037       -17.217800396        28.758170584
       216          108.000000         0.003359940       707.322574227       -17.216677472       -17.217807432        28.513070250
       217          108.500000         0.003208052       675.347710391       -17.216199486       -17.217808606        33.192250617
       218          109.000000         0.002922221       615.175633856       -17.215519513       -17.217802217        37.664973041
       219          109.500000         0.001769847       372.581947993       -17.214752657       -17.217792191        41.029359755
       220          110.000000         0.000755714       159.090129575       -17.214110893       -17.217783226        36.807914756
       221          110.500000         0.000416609        87.703074838       -17.213795807       -17.217778196        40.087136700
       222          111.000000         0.000480676       101.190175240       -17.213837239       -17.217776990        45.018667011
       223          111.500000         0.001151812       242.475336858       -17.214272643       -17.217779877        47.199616757
       224          112.000000         0.001809352       380.898246947       -17.215008072       -17.217786934        41.383637539
       225          112.500000         0.002731448       575.014695687       -17.215907632       -17.217797332        39.691638848
       226          113.000000         0.003991156       840.203953648       -17.216896705       -17.217809811        37.878022012
       227          113.500000         0.004698497       989.110736053       -17.217713120       -17.217818658        44.404610476