#     Step Nr.          Time[fs]        Kin.[a.u.]          Temp[K]            Pot.[a.u.]        Cons Qty[a.u.]        UsedTime[s]
         0            0.000000         0.001900089       100.000000000       -34.447892042       -34.445991952         0.000000000
         1            0.500000         0.001959593       103.131645279       -34.447991437       -34.445992739        96.573319201
         2            1.000000         0.001969214       103.637989099       -34.448074379       -34.445993142        20.290347299
         3            1.500000         0.001879602        98.921787164       -34.448135243       -34.445994128        21.920256598
         4            2.000000         0.001853411        97.543343220       -34.448172209       -34.445994981        21.891048073
         5            2.500000         0.001881147        99.003073114       -34.448174776       -34.445996021        21.739609966
         6            3.000000         0.001970190       103.689366664       -34.448133433       -34.445995927        22.190208746
         7            3.500000         0.001673899        88.095807363       -34.448049050       -34.445995230        22.381134512
         8            4.000000         0.001477413        77.754936640       -34.447947350       -34.445993835        22.056016587
         9            4.500000         0.001425028        74.997966630       -34.447843988       -34.445992991        22.271037137
        10            5.000000         0.001386011        72.944521632       -34.447766137       -34.445992690        24.188884809
        11            5.500000         0.001374745        72.351578765       -34.447713811       -34.445993491        26.259749739
        12            6.000000         0.001288805        67.828681005       -34.447677006       -34.445994295        27.396511389
        13            6.500000         0.001419217        74.692137679       -34.447644178       -34.445995126        41.084268041
        14            7.000000         0.001512352        79.593733708       -34.447593403       -34.445994954        34.610230970
        15            7.500000         0.001427017        75.102613140       -34.447523693       -34.445994191        45.012921751
        16            8.000000         0.001437697        75.664728993       -34.447447131       -34.445992548        44.885472906
        17            8.500000         0.001313656        69.136540082       -34.447390249       -34.445991150        38.962803594
        18            9.000000         0.001279582        67.343264003       -34.447386532       -34.445990317        31.782254861
        19            9.500000         0.001329940        69.993560466       -34.447449991       -34.445991162        41.824149708
        20           10.000000         0.001469101        77.317480458       -34.447570170       -34.445993118        37.231205569
        21           10.500000         0.001631287        85.853157445       -34.447713414       -34.445996192        45.369728209
        22           11.000000         0.001848056        97.261544991       -34.447835143       -34.445998548        33.583346053
        23           11.500000         0.001766072        92.946800603       -34.447894703       -34.445999666        43.440343568
        24           12.000000         0.001817414        95.648900950       -34.447883387       -34.445998558        43.585177924
        25           12.500000         0.001759999        92.627176156       -34.447820312       -34.445996527        45.187882383
        26           13.000000         0.001715325        90.276044014       -34.447738065       -34.445993910        37.024203265
        27           13.500000         0.001565611        82.396698131       -34.447685756       -34.445992958        34.640510542
        28           14.000000         0.001574119        82.844475354       -34.447681218       -34.445993347        29.200058225
        29           14.500000         0.001417548        74.604281003       -34.447718184       -34.445995637        29.043748871
        30           15.000000         0.001423163        74.899824788       -34.447773268       -34.445998170        26.784468976
        31           15.500000         0.001505265        79.220763424       -34.447812367       -34.446000947        32.170697838
        32           16.000000         0.001501060        78.999454011       -34.447799862       -34.446001961        38.458955787
        33           16.500000         0.001513639        79.661460336       -34.447713097       -34.446001565        44.875787828
        34           17.000000         0.001509464        79.441760422       -34.447548600       -34.445998185        44.465825234
        35           17.500000         0.001332026        70.103352008       -34.447357814       -34.445993924        29.644439035
        36           18.000000         0.001301610        68.502551078       -34.447200680       -34.445989288        44.926754733
        37           18.500000         0.001201729        63.245929545       -34.447159226       -34.445988274        44.598914619
        38           19.000000         0.001412155        74.320469648       -34.447256756       -34.445990883        44.797217400
        39           19.500000         0.001410787        74.248468314       -34.447452729       -34.445997204        44.976397078
        40           20.000000         0.001638131        86.213361626       -34.447655144       -34.446002802        37.932827707
        41           20.500000         0.001818356        95.698466444       -34.447791489       -34.446006523        36.329659132
        42           21.000000         0.001864972        98.151803053       -34.447805071       -34.446005573        45.443217794
        43           21.500000         0.001822978        95.941705114       -34.447701681       -34.446001894        27.104987562
        44           22.000000         0.001677673        88.294455350       -34.447541104       -34.445996278        45.118624319
        45           22.500000         0.001618611        85.186027647       -34.447408720       -34.445992652        44.687471641
        46           23.000000         0.001594243        83.903578398       -34.447373572       -34.445991392        43.092407251
        47           23.500000         0.001711369        90.067814067       -34.447454560       -34.445994352        43.824429365
        48           24.000000         0.001818794        95.721484855       -34.447617466       -34.445999266        36.227724776
        49           24.500000         0.002048745       107.823624678       -34.447781597       -34.446005612        43.175540585
        50           25.000000         0.002092721       110.138052232       -34.447862222       -34.446009764        30.427154736
        51           25.500000         0.001898039        99.892094174       -34.447792685       -34.446010793        42.953137824
        52           26.000000         0.001750387        92.121313618       -34.447572714       -34.446006655        42.055122683
        53           26.500000         0.001571973        82.731532501       -34.447262136       -34.445999838        39.459241745
        54           27.000000         0.001195964        62.942532962       -34.446993436       -34.445993011        31.217820363
        55           27.500000         0.000980397        51.597418382       -34.446859799       -34.445990737        30.895488600
        56           28.000000         0.001107918        58.308741614       -34.446911737       -34.445993649        35.613077150
        57           28.500000         0.001192481        62.759204295       -34.447103819       -34.446001099        41.362545193
        58           29.000000         0.001415433        74.492983568       -34.447328381       -34.446008181        34.529259464
        59           29.500000         0.001573796        82.827493802       -34.447474176       -34.446012144        37.911619687
        60           30.000000         0.001356671        71.400382687       -34.447490299       -34.446011188        31.629177046
        61           30.500000         0.001259374        66.279744257       -34.447410739       -34.446007579        29.210892281
        62           31.000000         0.001150343        60.541543765       -34.447299031       -34.446002808        45.367990984
        63           31.500000         0.001214674        63.927196461       -34.447217579       -34.445999213        43.820768474
        64           32.000000         0.001398911        73.623418949       -34.447222931       -34.445997859        29.173155279
        65           32.500000         0.001594348        83.909114587       -34.447334928       -34.445999891        29.357294646
        66           33.000000         0.001622352        85.382943515       -34.447524354       -34.446004313        45.136269181
        67           33.500000         0.001881521        99.022754256       -34.447717509       -34.446009916        44.580426229
        68           34.000000         0.001948047       102.523974082       -34.447831341       -34.446014163        24.599938334
        69           34.500000         0.002097145       110.370880136       -34.447802647       -34.446015242        24.272129166
        70           35.000000         0.001894573        99.709701925       -34.447597506       -34.446011934        34.314422191
        71           35.500000         0.001676375        88.226108869       -34.447268414       -34.446004273        38.541898749
        72           36.000000         0.001540393        81.069522096       -34.446918861       -34.445995862        30.714439738
        73           36.500000         0.001170314        61.592600667       -34.446683666       -34.445991791        38.056316490
        74           37.000000         0.001045824        55.040766194       -34.446640722       -34.445993733        42.940995963
        75           37.500000         0.001213317        63.855779939       -34.446756437       -34.446000700        39.557419548
        76           38.000000         0.001312475        69.074391589       -34.446932522       -34.446008527        33.192901033
        77           38.500000         0.001435262        75.536553672       -34.447037831       -34.446012977        45.158674325
        78           39.000000         0.001441400        75.859603308       -34.447011574       -34.446012054        37.554300410
        79           39.500000         0.001347954        70.941609658       -34.446859073       -34.446007101        44.956309481
        80           40.000000         0.001075948        56.626183979       -34.446651242       -34.446000096        45.106623193
        81           40.500000         0.000990452        52.126602486       -34.446503370       -34.445994964        43.103790270
        82           41.000000         0.001079882        56.833228397       -34.446492398       -34.445993073        44.547667751
        83           41.500000         0.001280626        67.398186648       -34.446650530       -34.445995928        45.185885209
        84           42.000000         0.001631999        85.890660299       -34.446935627       -34.446002202        45.470600617
        85           42.500000         0.002016349       106.118637002       -34.447252068       -34.446010379        45.065190055
        86           43.000000         0.002301334       121.117179306       -34.447465053       -34.446016364        37.457250666
        87           43.500000         0.002333393       122.804381582       -34.447478447       -34.446017607        34.572772867
        88           44.000000         0.002084577       109.709417474       -34.447271236       -34.446012357        35.206658825
        89           44.500000         0.001777286        93.536955553       -34.446941585       -34.446003803        45.159905648
        90           45.000000         0.001579671        83.136676287       -34.446608030       -34.445995669        34.823129939
        91           45.500000         0.001234058        64.947373136       -34.446401261       -34.445993071        52.317766810
        92           46.000000         0.001157093        60.896748418       -34.446375185       -34.445996655        37.328019638
        93           46.500000         0.001302580        68.553649262       -34.446471070       -34.446004408        31.960848002
        94           47.000000         0.001331220        70.060932891       -34.446571327       -34.446010932        31.378851010
        95           47.500000         0.001298919        68.360934991       -34.446583652       -34.446013720        45.985899114
        96           48.000000         0.001193341        62.804492823       -34.446473454       -34.446011639        45.315168107
        97           48.500000         0.000954476        50.233234399       -34.446273440       -34.446006499        36.764748414
        98           49.000000         0.000730232        38.431461660       -34.446068232       -34.446000470        30.602870469
        99           49.500000         0.000637368        33.544112152       -34.445944090       -34.445996212        29.564915402
       100           50.000000         0.000760225        40.009983083       -34.445973245       -34.445995270        52.907083085
       101           50.500000         0.001093990        57.575694753       -34.446179350       -34.445998581        44.929354385
       102           51.000000         0.001715175        90.268141625       -34.446511991       -34.446004945        52.782770853
       103           51.500000         0.002063362       108.592894763       -34.446861294       -34.446012378        44.967607947
       104           52.000000         0.002313808       121.773668454       -34.447085660       -34.446016747        41.971879864
       105           52.500000         0.002467081       129.840275896       -34.447117442       -34.446016103        36.274270097
       106           53.000000         0.002273206       119.636783986       -34.446961831       -34.446009893        45.076733112
       107           53.500000         0.002049493       107.862977184       -34.446711752       -34.446001646        44.223222444
       108           54.000000         0.001715451        90.282664903       -34.446516564       -34.445996399        36.099683687
       109           54.500000         0.001624128        85.476403726       -34.446455997       -34.445997398        38.891391492
       110           55.000000         0.001717613        90.396454176       -34.446511485       -34.446003321        39.957478360
       111           55.500000         0.001706901        89.832689028       -34.446591485       -34.446009933        45.507311565
       112           56.000000         0.001699373        89.436460392       -34.446609748       -34.446013873        42.897660943
       113           56.500000         0.001553104        81.738474192       -34.446502024       -34.446013510        38.787264238
       114           57.000000         0.001224639        64.451648699       -34.446289806       -34.446009435        44.594380047
       115           57.500000         0.000878259        46.221996120       -34.446047645       -34.446004228        43.399289162
       116           58.000000         0.000648137        34.110886086       -34.445889760       -34.446000536        45.855787281
       117           58.500000         0.000593198        31.219469544       -34.445856724       -34.445999715        40.930286144
       118           59.000000         0.000613722        32.299635004       -34.445964893       -34.446001909        52.261655631
       119           59.500000         0.000783186        41.218383764       -34.446183033       -34.446006780        38.842149694
       120           60.000000         0.001192874        62.779882165       -34.446444877       -34.446012415        31.004190220
       121           60.500000         0.001398002        73.575606183       -34.446654894       -34.446016405        24.889632389
       122           61.000000         0.001532075        80.631749761       -34.446756203       -34.446016455        24.238001949
       123           61.500000         0.001514453        79.704303081       -34.446738005       -34.446012453        44.965172554
       124           62.000000         0.001359789        71.564478661       -34.446669203       -34.446006836        31.502394642
       125           62.500000         0.001208188        63.585855735       -34.446641877       -34.446003753        39.135443096
       126           63.000000         0.001224066        64.421488582       -34.446708254       -34.446005124        38.039827575
       127           63.500000         0.001484870        78.147376085       -34.446850369       -34.446010391        43.366927436
       128           64.000000         0.001621482        85.337167849       -34.446988818       -34.446015975        41.013274151
       129           64.500000         0.001769373        93.120500055       -34.447030665       -34.446018888        28.937050810
       130           65.000000         0.001534267        80.747108993       -34.446929377       -34.446017667        32.109417351
       131           65.500000         0.001558918        82.044473015       -34.446697215       -34.446013424        32.973846678
       132           66.000000         0.001246057        65.578886108       -34.446376258       -34.446007369        31.575629481
       133           66.500000         0.000994783        52.354557106       -34.446077987       -34.446002355        38.490188190
       134           67.000000         0.000856331        45.067927680       -34.445875319       -34.445999524        40.314431167
       135           67.500000         0.000841025        44.262412263       -34.445796653       -34.445999870        38.418329962
       136           68.000000         0.000940549        49.500243514       -34.445844547       -34.446002857        43.734928901
       137           68.500000         0.001018610        53.608554100       -34.445969185       -34.446007687        32.845339963
       138           69.000000         0.001192227        62.745826820       -34.446095853       -34.446011751        29.227671052
       139           69.500000         0.001238075        65.158767243       -34.446162423       -34.446013220        39.671675124
       140           70.000000         0.001189815        62.618898298       -34.446161690       -34.446010913        40.666684873
       141           70.500000         0.001245868        65.568932758       -34.446134486       -34.446006379        45.069776199
       142           71.000000         0.001257015        66.155602947       -34.446148653       -34.446001883        29.834261462
       143           71.500000         0.001458910        76.781148974       -34.446267983       -34.446001139        29.322640626
       144           72.000000         0.001864871        98.146486773       -34.446503691       -34.446004971        28.887517141
       145           72.500000         0.002257894       118.830935738       -34.446803717       -34.446011794        38.114606403
       146           73.000000         0.002430039       127.890785515       -34.447053488       -34.446017086        44.883591122
       147           73.500000         0.002367116       124.579195954       -34.447166222       -34.446018393        31.145560544
       148           74.000000         0.002242540       118.022888719       -34.447131276       -34.446016463        31.540409329
       149           74.500000         0.002130763       112.140149063       -34.446994602       -34.446012526        37.744131135
       150           75.000000         0.001892143        99.581776123       -34.446819391       -34.446008693        45.673969853
       151           75.500000         0.001737012        91.417400806       -34.446666805       -34.446006576        45.057666067
       152           76.000000         0.001671504        87.969748741       -34.446576714       -34.446006021        43.188150986
       153           76.500000         0.001710685        90.031842893       -34.446549570       -34.446007323        44.607121317
       154           77.000000         0.001979990       104.205131086       -34.446558750       -34.446010284        45.377327592
       155           77.500000         0.002098042       110.418085717       -34.446555144       -34.446012830        45.351781387
       156           78.000000         0.002068667       108.872100043       -34.446482676       -34.446013341        35.378024908
       157           78.500000         0.001937313       101.959036488       -34.446336709       -34.446010828        45.004318785
       158           79.000000         0.001823109        95.948603231       -34.446164513       -34.446005080        33.693325705
       159           79.500000         0.001676264        88.220288542       -34.446049759       -34.445999214        39.729731742
       160           80.000000         0.001698170        89.373182240       -34.446080163       -34.445997593        52.339961225
       161           80.500000         0.001837199        96.690165764       -34.446282265       -34.446001614        30.343596748
       162           81.000000         0.002106311       110.853248774       -34.446606934       -34.446009932        29.758084586
       163           81.500000         0.002297006       120.889389223       -34.446913716       -34.446017529        29.734213776
       164           82.000000         0.002170073       114.209011557       -34.447108923       -34.446020264        24.578309949
       165           82.500000         0.002191924       115.358988991       -34.447172098       -34.446018414        34.654610813
       166           83.000000         0.002153640       113.344135757       -34.447140284       -34.446014503        45.877882163
       167           83.500000         0.002212298       116.431284623       -34.447073046       -34.446010606        32.059590507
       168           84.000000         0.002189843       115.249467459       -34.447028883       -34.446008882        33.539236624
       169           84.500000         0.002409726       126.821720515       -34.447035609       -34.446009819        31.075076551
       170           85.000000         0.002437601       128.288750079       -34.447078948       -34.446012191        28.925416973
       171           85.500000         0.002372669       124.871449355       -34.447116495       -34.446015079        33.306614855
       172           86.000000         0.002160888       113.725629494       -34.447108773       -34.446017635        25.153195188
       173           86.500000         0.002115432       111.333316035       -34.447021979       -34.446018986        27.382149299
       174           87.000000         0.001985605       104.500600787       -34.446836963       -34.446018127        41.219070312
       175           87.500000         0.001579951        83.151434970       -34.446576442       -34.446014733        38.896685986
       176           88.000000         0.001188228        62.535358886       -34.446307744       -34.446009987        38.345797925
       177           88.500000         0.001025695        53.981419299       -34.446103616       -34.446006094        43.053507404
       178           89.000000         0.000887049        46.684588978       -34.446025033       -34.446005388        45.013462051
       179           89.500000         0.001177160        61.952894728       -34.446080641       -34.446008614        42.510438914
       180           90.000000         0.001299253        68.378511034       -34.446222500       -34.446014243        45.116301397
       181           90.500000         0.001493689        78.611524478       -34.446353594       -34.446018605        45.283676258
       182           91.000000         0.001468154        77.267648855       -34.446404551       -34.446018660        45.372142477
       183           91.500000         0.001520302        80.012145744       -34.446380527       -34.446015102        32.227001475
       184           92.000000         0.001533713        80.717952797       -34.446334131       -34.446010536        35.731260329
       185           92.500000         0.001558553        82.025261744       -34.446329626       -34.446008093        31.563937811
       186           93.000000         0.001587752        83.561964090       -34.446409066       -34.446008493        44.936761993
       187           93.500000         0.001786544        94.024193128       -34.446568717       -34.446011607        29.887557063
       188           94.000000         0.002036972       107.203994846       -34.446756409       -34.446016054        43.049673590
       189           94.500000         0.002141847       112.723514520       -34.446906850       -34.446019670        44.840996734
       190           95.000000         0.002043026       107.522651163       -34.446957273       -34.446021632        35.650873882
       191           95.500000         0.001958057       103.050809316       -34.446885637       -34.446021826        26.344289230
       192           96.000000         0.001635564        86.078294761       -34.446704385       -34.446019477        29.163918417
       193           96.500000         0.001309513        68.918505440       -34.446475432       -34.446015704        29.308734212
       194           97.000000         0.001033328        54.383112614       -34.446252771       -34.446012049        33.883924384
       195           97.500000         0.000862137        45.373492838       -34.446108864       -34.446009973        52.088882340
       196           98.000000         0.000999282        52.591340976       -34.446064784       -34.446011130        38.326607561
       197           98.500000         0.001036778        54.564699372       -34.446096736       -34.446015817        31.454551153
       198           99.000000         0.001019440        53.652213389       -34.446135424       -34.446020347        36.804657691
       199           99.500000         0.000970682        51.086146247       -34.446119832       -34.446022156        31.219209201
       200          100.000000         0.000908921        47.835690767       -34.446033869       -34.446020420        45.519528118
       201          100.500000         0.000873608        45.977226554       -34.445905966       -34.446015462        37.292992530
       202          101.000000         0.000646871        34.044246319       -34.445809889       -34.446010640        28.789444249
       203          101.500000         0.000618183        32.534437891       -34.445825308       -34.446009577        45.554800787
       204          102.000000         0.000707831        37.252494068       -34.445975515       -34.446012047        45.418018540
       205          102.500000         0.000986211        51.903401973       -34.446222623       -34.446016879        44.978983942
       206          103.000000         0.001237760        65.142181457       -34.446490922       -34.446022156        40.674343794
       207          103.500000         0.001416181        74.532323144       -34.446712162       -34.446025307        45.520741386
       208          104.000000         0.001489574        78.394945884       -34.446830755       -34.446025979        34.266839926
       209          104.500000         0.001510675        79.505473620       -34.446842023       -34.446024837        37.306215068
       210          105.000000         0.001525926        80.308144593       -34.446765920       -34.446021536        29.584517413
       211          105.500000         0.001506440        79.282583409       -34.446651368       -34.446017695        42.481316469
       212          106.000000         0.001529606        80.501796365       -34.446548419       -34.446015098        43.188925954
       213          106.500000         0.001421857        74.831061056       -34.446506765       -34.446014356        37.742059853
       214          107.000000         0.001507989        79.364102258       -34.446536566       -34.446016672        45.160491843
       215          107.500000         0.001662959        87.520060852       -34.446599982       -34.446021653        44.473880422
       216          108.000000         0.001785223        93.954676430       -34.446623488       -34.446025775        34.846724041
       217          108.500000         0.001654867        87.094185179       -34.446539608       -34.446026835        40.575415039
       218          109.000000         0.001484214        78.112855901       -34.446330283       -34.446023052        37.752268642
       219          109.500000         0.001191802        62.723478821       -34.446056367       -34.446016405        34.475375814
       220          110.000000         0.000900281        47.380993687       -34.445837752       -34.446010186        37.740665452
       221          110.500000         0.000851121        44.793718762       -34.445764078       -34.446008019        31.239968756
       222          111.000000         0.001013578        53.343692219       -34.445873599       -34.446010347        39.807866788
       223          111.500000         0.001404851        73.936035531       -34.446137619       -34.446016473        29.531169647
       224          112.000000         0.001742642        91.713694819       -34.446461583       -34.446022533        42.130768025
       225          112.500000         0.001967336       103.539136631       -34.446726053       -34.446026540        37.654386941
       226          113.000000         0.002104266       110.745643939       -34.446897624       -34.446027191        39.683403254
       227          113.500000         0.002120708       111.610956582       -34.446957430       -34.446025639        45.112651598