 DBCSR| Multiplication driver                                               BLAS
 DBCSR| Multrec recursion limit                                              512
 DBCSR| Multiplication stack size                                           1000
 DBCSR| Maximum elements for images                                    UNLIMITED
 DBCSR| Multiplicative factor virtual images                                   1
 DBCSR| Multiplication size stacks                                             3


  **** **** ******  **  PROGRAM STARTED AT               2020-05-18 23:41:23.468
 ***** ** ***  *** **   PROGRAM STARTED ON                                 sheep
 **    ****   ******    PROGRAM STARTED BY                                 sim03
 ***** **    ** ** **   PROGRAM PROCESS ID                               3453825
  **** **  *******  **  PROGRAM STARTED IN /auto.eland/home/sim03/Documents/SimP
                                           hys/Summer/2/cp2k/DIMER_MD_TEST_100K

 CP2K| version string:                                          CP2K version 5.1
 CP2K| source code revision number:                                    svn:18091
 CP2K| cp2kflags: fftw3 max_contr=4                                             
 CP2K| is freely available from                            https://www.cp2k.org/
 CP2K| Program compiled at                         Thu May  9 16:52:28 CEST 2019
 CP2K| Program compiled on                                                  cip0
 CP2K| Program compiled for                                                 icp2
 CP2K| Data directory path          /auto.eland/group/allatom/cp2k/cp2k-5.1/data
 CP2K| Input file name                                        water_dimer_md.inp

 GLOBAL| Force Environment number                                              1
 GLOBAL| Basis set file name                                      ./BASIS_MOLOPT
 GLOBAL| Potential file name                                    ./GTH_POTENTIALS
 GLOBAL| MM Potential file name                                     MM_POTENTIAL
 GLOBAL| Coordinate file name                                    water-dimer.xyz
 GLOBAL| Method name                                                        CP2K
 GLOBAL| Project name                                             water_dimer_md
 GLOBAL| Preferred FFT library                                             FFTW3
 GLOBAL| Preferred diagonalization lib.                                       SL
 GLOBAL| Run type                                                             MD
 GLOBAL| All-to-all communication in single precision                          F
 GLOBAL| FFTs using library dependent lengths                                  F
 GLOBAL| Global print level                                                  LOW
 GLOBAL| Total number of message passing processes                             1
 GLOBAL| Number of threads for this process                                    1
 GLOBAL| This output is from process                                           0
 GLOBAL| CPU model name :  Intel(R) Core(TM) i7-3930K CPU @ 3.20GHz

 MEMORY| system memory details [Kb]
 MEMORY|                        rank 0           min           max       average
 MEMORY| MemTotal              8112104       8112104       8112104       8112104
 MEMORY| MemFree               4457296       4457296       4457296       4457296
 MEMORY| Buffers                 85424         85424         85424         85424
 MEMORY| Cached                2184284       2184284       2184284       2184284
 MEMORY| Slab                   336496        336496        336496        336496
 MEMORY| SReclaimable           251808        251808        251808        251808
 MEMORY| MemLikelyFree         6978812       6978812       6978812       6978812


 GENERATE|  Preliminary Number of Bonds generated:                             0
 GENERATE|  Achieved consistency in connectivity generation.

 *******************************************************************************
 *******************************************************************************
 **                                                                           **
 **     #####                         ##              ##                      **
 **    ##   ##            ##          ##              ##                      **
 **   ##     ##                       ##            ######                    **
 **   ##     ##  ##   ##  ##   #####  ##  ##   ####   ##    #####    #####    **
 **   ##     ##  ##   ##  ##  ##      ## ##   ##      ##   ##   ##  ##   ##   **
 **   ##  ## ##  ##   ##  ##  ##      ####     ###    ##   ######   ######    **
 **    ##  ###   ##   ##  ##  ##      ## ##      ##   ##   ##       ##        **
 **     #######   #####   ##   #####  ##  ##  ####    ##    #####   ##        **
 **           ##                                                    ##        **
 **                                                                           **
 **                                                ... make the atoms dance   **
 **                                                                           **
 **            Copyright (C) by CP2K developers group (2000 - 2017)           **
 **                                                                           **
 *******************************************************************************


 SCF PARAMETERS         Density guess:                                    ATOMIC
                        --------------------------------------------------------
                        max_scf:                                              50
                        max_scf_history:                                       0
                        max_diis:                                              4
                        --------------------------------------------------------
                        eps_scf:                                        1.00E-06
                        eps_scf_history:                                0.00E+00
                        eps_diis:                                       1.00E-01
                        eps_eigval:                                     1.00E-05
                        --------------------------------------------------------
                        level_shift [a.u.]:                                 0.00
                        --------------------------------------------------------
                        Outer loop SCF in use 
                        No variables optimised in outer loop
                        eps_scf                                         1.00E-06
                        max_scf                                               50
                        No outer loop optimization
                        step_size                                       5.00E-01

 MD| Molecular Dynamics Protocol 
 MD| Ensemble Type                                                           NVT
 MD| Number of Time Steps                                                   2000
 MD| Time Step [fs]                                                         0.50
 MD| Temperature [K]                                                      100.00
 MD| Temperature tolerance [K]                                              0.00
 MD| Print MD information every                                        1 step(s)
 MD| File type     Print frequency[steps]                             File names
 MD| Coordinates            1                           water_dimer_md-pos-1.xyz
 MD| Velocities             1                           water_dimer_md-vel-1.xyz
 MD| Energies               1                              water_dimer_md-1.ener
 MD| Dump                  20                           water_dimer_md-1.restart

 ROT| Rotational Analysis Info 
 ROT| Principal axes and moments of inertia in atomic units:
 ROT|                                1                 2                 3
 ROT| EIGENVALUES            0.156487566E+05   0.520642743E+06   0.520764209E+06
 ROT|      X                     0.999210353      -0.028633601       0.027546084
 ROT|      Y                    -0.002853408      -0.743212415      -0.669049448
 ROT|      Z                     0.039629887       0.668442535      -0.742707244
 ROT| Numer of Rotovibrational vectors:     6

 Calculation of degrees of freedom
                                                      Number of atoms:         6
                                 Number of Intramolecular constraints:         0
                                 Number of Intermolecular constraints:         0
                                  Invariants(translation + rotations):         6
                                                   Degrees of freedom:        12


 Restraints Information
                                  Number of Intramolecular restraints:         0
                                  Number of Intermolecular restraints:         0

 THERMOSTAT| Thermostat Info for PARTICLES
 THERMOSTAT| Type of thermostat            Canonical Sampling/Velocity Rescaling
 THERMOSTAT| CSVR time constant [  fs]                                     50.00
 THERMOSTAT| Initial Kinetic Energy                                     0.000000
 THERMOSTAT| End of Thermostat Info for PARTICLES

 ************************** Velocities initialization **************************
 Initial Temperature                                                    100.00 K
 COM velocity:           -0.000000000000     -0.000000000000      0.000000000000
 COM position:           14.331694840386     14.161896398666     13.839209664972
 Angular velocity:        0.000000000000     -0.000000000000     -0.000000000000
 *******************************************************************************


 Number of electrons:                                                         16
 Number of occupied orbitals:                                                  8
 Number of molecular orbitals:                                                 8

 Number of orbital functions:                                                 46
 Number of independent orbital functions:                                     46

 Extrapolation method: initial_guess


 SCF WAVEFUNCTION OPTIMIZATION

  ----------------------------------- OT ---------------------------------------
  Minimizer      : DIIS                : direct inversion
                                         in the iterative subspace
                                         using   7 DIIS vectors
                                         safer DIIS on
  Preconditioner : FULL_ALL            : diagonalization, state selective
  Precond_solver : DEFAULT
  stepsize       :    0.15000000                  energy_gap     :    0.08000000
  eps_taylor     :   0.10000E-15                  max_taylor     :             4
  ----------------------------------- OT ---------------------------------------

  Step     Update method      Time    Convergence         Total energy    Change
  ------------------------------------------------------------------------------
     1 OT DIIS     0.15E+00    6.7     0.28765090       -32.6428713339 -3.26E+01
     2 OT DIIS     0.15E+00    5.5     0.20330479       -33.1064055612 -4.64E-01
     3 OT DIIS     0.15E+00    5.5     0.12485656       -34.2161262384 -1.11E+00
     4 OT DIIS     0.15E+00    5.5     0.05056557       -34.4037723111 -1.88E-01
     5 OT DIIS     0.15E+00    5.4     0.04993112       -34.4268803688 -2.31E-02
     6 OT DIIS     0.15E+00    5.5     0.03281412       -34.4395301201 -1.26E-02
     7 OT DIIS     0.15E+00    5.6     0.00930861       -34.4467688678 -7.24E-03
     8 OT DIIS     0.15E+00    5.6     0.00505819       -34.4475790129 -8.10E-04
     9 OT DIIS     0.15E+00    5.6     0.00205437       -34.4478298684 -2.51E-04
    10 OT DIIS     0.15E+00    5.6     0.00067582       -34.4478830684 -5.32E-05
    11 OT DIIS     0.15E+00    5.6     0.00035272       -34.4478894503 -6.38E-06
    12 OT DIIS     0.15E+00    5.6     0.00017550       -34.4478912681 -1.82E-06
    13 OT DIIS     0.15E+00    5.7     0.00011527       -34.4478918286 -5.60E-07
    14 OT DIIS     0.15E+00    5.8     0.00007454       -34.4478919583 -1.30E-07
    15 OT DIIS     0.15E+00    5.7     0.00002645       -34.4478920270 -6.86E-08
    16 OT DIIS     0.15E+00    5.8     0.00001952       -34.4478920364 -9.40E-09
    17 OT DIIS     0.15E+00    5.7     0.00001213       -34.4478920396 -3.27E-09
    18 OT DIIS     0.15E+00    5.8     0.00000854       -34.4478920408 -1.12E-09
    19 OT DIIS     0.15E+00    5.7     0.00000290       -34.4478920414 -6.89E-10
    20 OT DIIS     0.15E+00    5.7     0.00000194       -34.4478920416 -1.26E-10
    21 OT DIIS     0.15E+00    5.8     0.00000102       -34.4478920416 -5.19E-11
    22 OT DIIS     0.15E+00    6.0     0.00000079       -34.4478920416 -1.37E-11

  *** SCF run converged in    22 steps ***


  Electronic density on regular grids:        -15.9999998644        0.0000001356
  Core density on regular grids:               15.9999999995       -0.0000000005
  Total charge density on r-space grids:        0.0000001351
  Total charge density g-space grids:           0.0000001351

  Overlap energy of the core charge distribution:               0.00000011467697
  Self energy of the core charge distribution:                -88.69430999347530
  Core Hamiltonian energy:                                     25.83840545202619
  Hartree energy:                                              36.87664754674594
  Exchange-correlation energy:                                 -8.46792359880912
  Dispersion energy:                                           -0.00071156280609

  Total energy:                                               -34.44789204164142

  outer SCF iter =    1 RMS gradient =   0.79E-06 energy =        -34.4478920416
  outer SCF loop converged in   1 iterations or   22 steps


 MOMENTS
  The electric/magnetic moments are written to file:
  water_dimer_dipole.out


 ENERGY| Total FORCE_EVAL ( QS ) energy (a.u.):              -34.447892041644742


 MD_ENERGIES| Initialization proceeding


 ******************************** GO CP2K GO! **********************************
 INITIAL POTENTIAL ENERGY[hartree]     =                     -0.344478920416E+02
 INITIAL KINETIC ENERGY[hartree]       =                      0.190008920597E-02
 INITIAL TEMPERATURE[K]                =                                 100.000
 INITIAL VOLUME[bohr^3]                =                      0.227756292179E+05
 INITIAL CELL LNTHS[bohr]   =      0.2834589E+02   0.2834589E+02   0.2834589E+02
 INITIAL CELL ANGLS[deg]    =      0.9000000E+02   0.9000000E+02   0.9000000E+02
 ******************************** GO CP2K GO! **********************************

 Number of electrons:                                                         16
 Number of occupied orbitals:                                                  8
 Number of molecular orbitals:                                                 8

 Number of orbital functions:                                                 46
 Number of independent orbital functions:                                     46

 Extrapolation method: ASPC


 SCF WAVEFUNCTION OPTIMIZATION

  ----------------------------------- OT ---------------------------------------
  Minimizer      : DIIS                : direct inversion
                                         in the iterative subspace
                                         using   7 DIIS vectors
                                         safer DIIS on
  Preconditioner : FULL_ALL            : diagonalization, state selective
  Precond_solver : DEFAULT
  stepsize       :    0.15000000                  energy_gap     :    0.08000000
  eps_taylor     :   0.10000E-15                  max_taylor     :             4
  ----------------------------------- OT ---------------------------------------

  Step     Update method      Time    Convergence         Total energy    Change
  ------------------------------------------------------------------------------
     1 OT DIIS     0.15E+00    5.3     0.00091474       -34.4479539623 -3.44E+01
     2 OT DIIS     0.15E+00    6.0     0.00036378       -34.4479855631 -3.16E-05
     3 OT DIIS     0.15E+00    6.4     0.00013258       -34.4479911181 -5.56E-06
     4 OT DIIS     0.15E+00    6.4     0.00001205       -34.4479914336 -3.15E-07
     5 OT DIIS     0.15E+00    6.5     0.00000333       -34.4479914371 -3.54E-09
     6 OT DIIS     0.15E+00    6.5     0.00000174       -34.4479914374 -2.72E-10
     7 OT DIIS     0.15E+00    7.2     0.00000009       -34.4479914374 -6.81E-11

  *** SCF run converged in     7 steps ***


  Electronic density on regular grids:        -15.9999998655        0.0000001345
  Core density on regular grids:               15.9999999995       -0.0000000005
  Total charge density on r-space grids:        0.0000001340
  Total charge density g-space grids:           0.0000001340

  Overlap energy of the core charge distribution:               0.00000011228526
  Self energy of the core charge distribution:                -88.69430999347530
  Core Hamiltonian energy:                                     25.83243105203117
  Hartree energy:                                              36.88098576078609
  Exchange-correlation energy:                                 -8.46638842752033
  Dispersion energy:                                           -0.00070994154538

  Total energy:                                               -34.44799143743849

  outer SCF iter =    1 RMS gradient =   0.93E-07 energy =        -34.4479914374
  outer SCF loop converged in   1 iterations or    7 steps


 MOMENTS
  The electric/magnetic moments are written to file:
  water_dimer_dipole.out


 ENERGY| Total FORCE_EVAL ( QS ) energy (a.u.):              -34.447991437439327


 *******************************************************************************
 ENSEMBLE TYPE                =                                              NVT
 STEP NUMBER                  =                                                1
 TIME [fs]                    =                                         0.500000
 CONSERVED QUANTITY [hartree] =                              -0.344459927389E+02

                                              INSTANTANEOUS             AVERAGES
 CPU TIME [s]                 =                      185.07               185.07
 ENERGY DRIFT PER ATOM [K]    =         -0.413930130921E-01   0.000000000000E+00
 POTENTIAL ENERGY[hartree]    =         -0.344479914374E+02  -0.344479914374E+02
 KINETIC ENERGY [hartree]     =          0.195959325989E-02   0.195959325989E-02
 TEMPERATURE [K]              =                     103.132              103.132
 *******************************************************************************


 Number of electrons:                                                         16
 Number of occupied orbitals:                                                  8
 Number of molecular orbitals:                                                 8

 Number of orbital functions:                                                 46
 Number of independent orbital functions:                                     46

 Extrapolation method: ASPC


 SCF WAVEFUNCTION OPTIMIZATION

  ----------------------------------- OT ---------------------------------------
  Minimizer      : DIIS                : direct inversion
                                         in the iterative subspace
                                         using   7 DIIS vectors
                                         safer DIIS on
  Preconditioner : FULL_ALL            : diagonalization, state selective
  Precond_solver : DEFAULT
  stepsize       :    0.15000000                  energy_gap     :    0.08000000
  eps_taylor     :   0.10000E-15                  max_taylor     :             4
  ----------------------------------- OT ---------------------------------------

  Step     Update method      Time    Convergence         Total energy    Change
  ------------------------------------------------------------------------------
     1 OT DIIS     0.15E+00    6.1     0.00022330       -34.4480726081 -3.44E+01
     2 OT DIIS     0.15E+00    7.0     0.00010939       -34.4480740478 -1.44E-06
     3 OT DIIS     0.15E+00    6.9     0.00004938       -34.4480743055 -2.58E-07
     4 OT DIIS     0.15E+00    7.0     0.00000337       -34.4480743781 -7.26E-08
     5 OT DIIS     0.15E+00    6.8     0.00000067       -34.4480743785 -4.66E-10

  *** SCF run converged in     5 steps ***


  Electronic density on regular grids:        -15.9999998673        0.0000001327
  Core density on regular grids:               15.9999999995       -0.0000000005
  Total charge density on r-space grids:        0.0000001322
  Total charge density g-space grids:           0.0000001322

  Overlap energy of the core charge distribution:               0.00000010654654
  Self energy of the core charge distribution:                -88.69430999347530
  Core Hamiltonian energy:                                     25.81940136564065
  Hartree energy:                                              36.89040964348671
  Exchange-correlation energy:                                 -8.46286760519650
  Dispersion energy:                                           -0.00070789553529

  Total energy:                                               -34.44807437853321

  outer SCF iter =    1 RMS gradient =   0.67E-06 energy =        -34.4480743785
  outer SCF loop converged in   1 iterations or    5 steps


 MOMENTS
  The electric/magnetic moments are written to file:
  water_dimer_dipole.out


 ENERGY| Total FORCE_EVAL ( QS ) energy (a.u.):              -34.448074378550324


 Temperature scaled to requested temperature:    103.63 K  ->    103.64 K
 MD| Old VCOM =     0.0000002528   -0.0000001949    0.0000019006 a.u.
 MD| New VCOM =    -0.0000000000    0.0000000000   -0.0000000000 a.u
 MD| Old VANG =    -0.0000000563    0.0000012547    0.0000001463 a.u.
 MD| New VANG =     0.0000000000   -0.0000000000    0.0000000000 a.u

 *******************************************************************************
 ENSEMBLE TYPE                =                                              NVT
 STEP NUMBER                  =                                                2
 TIME [fs]                    =                                         1.000000
 CONSERVED QUANTITY [hartree] =                              -0.344459931418E+02

                                              INSTANTANEOUS             AVERAGES
 CPU TIME [s]                 =                       42.05               113.56
 ENERGY DRIFT PER ATOM [K]    =         -0.625971363313E-01  -0.312985681657E-01
 POTENTIAL ENERGY[hartree]    =         -0.344480743786E+02  -0.344480329080E+02
 KINETIC ENERGY [hartree]     =          0.196921424416E-02   0.196440375202E-02
 TEMPERATURE [K]              =                     103.638              103.385
 *******************************************************************************


 Number of electrons:                                                         16
 Number of occupied orbitals:                                                  8
 Number of molecular orbitals:                                                 8

 Number of orbital functions:                                                 46
 Number of independent orbital functions:                                     46

 Extrapolation method: ASPC


 SCF WAVEFUNCTION OPTIMIZATION

  ----------------------------------- OT ---------------------------------------
  Minimizer      : DIIS                : direct inversion
                                         in the iterative subspace
                                         using   7 DIIS vectors
                                         safer DIIS on
  Preconditioner : FULL_ALL            : diagonalization, state selective
  Precond_solver : DEFAULT
  stepsize       :    0.15000000                  energy_gap     :    0.08000000
  eps_taylor     :   0.10000E-15                  max_taylor     :             4
  ----------------------------------- OT ---------------------------------------

  Step     Update method      Time    Convergence         Total energy    Change
  ------------------------------------------------------------------------------
     1 OT DIIS     0.15E+00    6.1     0.00011650       -34.4481346789 -3.44E+01
     2 OT DIIS     0.15E+00    7.0     0.00004681       -34.4481351577 -4.79E-07
     3 OT DIIS     0.15E+00    6.9     0.00002562       -34.4481352288 -7.11E-08
     4 OT DIIS     0.15E+00    7.1     0.00000234       -34.4481352430 -1.42E-08
     5 OT DIIS     0.15E+00    6.9     0.00000066       -34.4481352432 -1.69E-10

  *** SCF run converged in     5 steps ***


  Electronic density on regular grids:        -15.9999998699        0.0000001301
  Core density on regular grids:               15.9999999995       -0.0000000005
  Total charge density on r-space grids:        0.0000001296
  Total charge density g-space grids:           0.0000001295

  Overlap energy of the core charge distribution:               0.00000009806639
  Self energy of the core charge distribution:                -88.69430999347530
  Core Hamiltonian energy:                                     25.80121541664862
  Hartree energy:                                              36.90355237929719
  Exchange-correlation energy:                                 -8.45788749540867
  Dispersion energy:                                           -0.00070564833211

  Total energy:                                               -34.44813524320389

  outer SCF iter =    1 RMS gradient =   0.66E-06 energy =        -34.4481352432
  outer SCF loop converged in   1 iterations or    5 steps


 MOMENTS
  The electric/magnetic moments are written to file:
  water_dimer_dipole.out


 ENERGY| Total FORCE_EVAL ( QS ) energy (a.u.):              -34.448135243212676


 *******************************************************************************
 ENSEMBLE TYPE                =                                              NVT
 STEP NUMBER                  =                                                3
 TIME [fs]                    =                                         1.500000
 CONSERVED QUANTITY [hartree] =                              -0.344459941283E+02

                                              INSTANTANEOUS             AVERAGES
 CPU TIME [s]                 =                       42.24                89.79
 ENERGY DRIFT PER ATOM [K]    =         -0.114511410047E+00  -0.590361821261E-01
 POTENTIAL ENERGY[hartree]    =         -0.344481352432E+02  -0.344480670197E+02
 KINETIC ENERGY [hartree]     =          0.187960220027E-02   0.193613656810E-02
 TEMPERATURE [K]              =                      98.922              101.897
 *******************************************************************************


 Number of electrons:                                                         16
 Number of occupied orbitals:                                                  8
 Number of molecular orbitals:                                                 8

 Number of orbital functions:                                                 46
 Number of independent orbital functions:                                     46

 Extrapolation method: ASPC


 SCF WAVEFUNCTION OPTIMIZATION

  ----------------------------------- OT ---------------------------------------
  Minimizer      : DIIS                : direct inversion
                                         in the iterative subspace
                                         using   7 DIIS vectors
                                         safer DIIS on
  Preconditioner : FULL_ALL            : diagonalization, state selective
  Precond_solver : DEFAULT
  stepsize       :    0.15000000                  energy_gap     :    0.08000000
  eps_taylor     :   0.10000E-15                  max_taylor     :             4
  ----------------------------------- OT ---------------------------------------

  Step     Update method      Time    Convergence         Total energy    Change
  ------------------------------------------------------------------------------
     1 OT DIIS     0.15E+00    6.2     0.00007116       -34.4481719984 -3.44E+01
     2 OT DIIS     0.15E+00    6.9     0.00002892       -34.4481721764 -1.78E-07
     3 OT DIIS     0.15E+00    6.9     0.00001604       -34.4481722029 -2.65E-08
     4 OT DIIS     0.15E+00    6.9     0.00000130       -34.4481722085 -5.59E-09
     5 OT DIIS     0.15E+00    6.9     0.00000036       -34.4481722085 -6.13E-11

  *** SCF run converged in     5 steps ***


  Electronic density on regular grids:        -15.9999998730        0.0000001270
  Core density on regular grids:               15.9999999995       -0.0000000005
  Total charge density on r-space grids:        0.0000001264
  Total charge density g-space grids:           0.0000001264

  Overlap energy of the core charge distribution:               0.00000008755350
  Self energy of the core charge distribution:                -88.69430999347530
  Core Hamiltonian energy:                                     25.77931113211241
  Hartree energy:                                              36.91938261381242
  Exchange-correlation energy:                                 -8.45185275699111
  Dispersion energy:                                           -0.00070329155232

  Total energy:                                               -34.44817220854040

  outer SCF iter =    1 RMS gradient =   0.36E-06 energy =        -34.4481722085
  outer SCF loop converged in   1 iterations or    5 steps


 MOMENTS
  The electric/magnetic moments are written to file:
  water_dimer_dipole.out


 ENERGY| Total FORCE_EVAL ( QS ) energy (a.u.):              -34.448172208536292


 Temperature scaled to requested temperature:     97.54 K  ->     97.54 K
 MD| Old VCOM =     0.0000005074   -0.0000002334    0.0000017881 a.u.
 MD| New VCOM =     0.0000000000    0.0000000000   -0.0000000000 a.u
 MD| Old VANG =    -0.0000001007    0.0000011793    0.0000001602 a.u.
 MD| New VANG =     0.0000000000   -0.0000000000   -0.0000000000 a.u

 *******************************************************************************
 ENSEMBLE TYPE                =                                              NVT
 STEP NUMBER                  =                                                4
 TIME [fs]                    =                                         2.000000
 CONSERVED QUANTITY [hartree] =                              -0.344459949814E+02

                                              INSTANTANEOUS             AVERAGES
 CPU TIME [s]                 =                       42.13                77.87
 ENERGY DRIFT PER ATOM [K]    =         -0.159414030203E+00  -0.841306441452E-01
 POTENTIAL ENERGY[hartree]    =         -0.344481722085E+02  -0.344480933169E+02
 KINETIC ENERGY [hartree]     =          0.185341053567E-02   0.191545506000E-02
 TEMPERATURE [K]              =                      97.543              100.809
 *******************************************************************************


 Number of electrons:                                                         16
 Number of occupied orbitals:                                                  8
 Number of molecular orbitals:                                                 8

 Number of orbital functions:                                                 46
 Number of independent orbital functions:                                     46

 Extrapolation method: ASPC


 SCF WAVEFUNCTION OPTIMIZATION

  ----------------------------------- OT ---------------------------------------
  Minimizer      : DIIS                : direct inversion
                                         in the iterative subspace
                                         using   7 DIIS vectors
                                         safer DIIS on
  Preconditioner : FULL_ALL            : diagonalization, state selective
  Precond_solver : DEFAULT
  stepsize       :    0.15000000                  energy_gap     :    0.08000000
  eps_taylor     :   0.10000E-15                  max_taylor     :             4
  ----------------------------------- OT ---------------------------------------

  Step     Update method      Time    Convergence         Total energy    Change
  ------------------------------------------------------------------------------
     1 OT DIIS     0.15E+00    5.9     0.00008348       -34.4481744847 -3.44E+01
     2 OT DIIS     0.15E+00    7.0     0.00003513       -34.4481747291 -2.44E-07
     3 OT DIIS     0.15E+00    6.8     0.00002029       -34.4481747666 -3.75E-08
     4 OT DIIS     0.15E+00    6.9     0.00000150       -34.4481747756 -8.98E-09
     5 OT DIIS     0.15E+00    6.8     0.00000063       -34.4481747757 -6.76E-11

  *** SCF run converged in     5 steps ***


  Electronic density on regular grids:        -15.9999998767        0.0000001233
  Core density on regular grids:               15.9999999995       -0.0000000005
  Total charge density on r-space grids:        0.0000001228
  Total charge density g-space grids:           0.0000001228

  Overlap energy of the core charge distribution:               0.00000007673507
  Self energy of the core charge distribution:                -88.69430999347530
  Core Hamiltonian energy:                                     25.75662307504383
  Hartree energy:                                              36.93579574118606
  Exchange-correlation energy:                                 -8.44558262791362
  Dispersion energy:                                           -0.00070104724862

  Total energy:                                               -34.44817477567260

  outer SCF iter =    1 RMS gradient =   0.63E-06 energy =        -34.4481747757
  outer SCF loop converged in   1 iterations or    5 steps


 MOMENTS
  The electric/magnetic moments are written to file:
  water_dimer_dipole.out


 ENERGY| Total FORCE_EVAL ( QS ) energy (a.u.):              -34.448174775680066


 *******************************************************************************
 ENSEMBLE TYPE                =                                              NVT
 STEP NUMBER                  =                                                5
 TIME [fs]                    =                                         2.500000
 CONSERVED QUANTITY [hartree] =                              -0.344459960210E+02

                                              INSTANTANEOUS             AVERAGES
 CPU TIME [s]                 =                       41.55                70.61
 ENERGY DRIFT PER ATOM [K]    =         -0.214126395673E+00  -0.110129794451E+00
 POTENTIAL ENERGY[hartree]    =         -0.344481747757E+02  -0.344481096087E+02
 KINETIC ENERGY [hartree]     =          0.188114670581E-02   0.190859338916E-02
 TEMPERATURE [K]              =                      99.003              100.448
 *******************************************************************************


 Number of electrons:                                                         16
 Number of occupied orbitals:                                                  8
 Number of molecular orbitals:                                                 8

 Number of orbital functions:                                                 46
 Number of independent orbital functions:                                     46

 Extrapolation method: ASPC


 SCF WAVEFUNCTION OPTIMIZATION

  ----------------------------------- OT ---------------------------------------
  Minimizer      : DIIS                : direct inversion
                                         in the iterative subspace
                                         using   7 DIIS vectors
                                         safer DIIS on
  Preconditioner : FULL_ALL            : diagonalization, state selective
  Precond_solver : DEFAULT
  stepsize       :    0.15000000                  energy_gap     :    0.08000000
  eps_taylor     :   0.10000E-15                  max_taylor     :             4
  ----------------------------------- OT ---------------------------------------

  Step     Update method      Time    Convergence         Total energy    Change
  ------------------------------------------------------------------------------
     1 OT DIIS     0.15E+00    6.0     0.00005993       -34.4481332755 -3.44E+01
     2 OT DIIS     0.15E+00    7.0     0.00002301       -34.4481334097 -1.34E-07
     3 OT DIIS     0.15E+00    6.8     0.00000838       -34.4481334318 -2.20E-08
     4 OT DIIS     0.15E+00    6.9     0.00000140       -34.4481334330 -1.23E-09
     5 OT DIIS     0.15E+00    7.1     0.00000023       -34.4481334330 -4.06E-11

  *** SCF run converged in     5 steps ***


  Electronic density on regular grids:        -15.9999998805        0.0000001195
  Core density on regular grids:               15.9999999995       -0.0000000005
  Total charge density on r-space grids:        0.0000001190
  Total charge density g-space grids:           0.0000001190

  Overlap energy of the core charge distribution:               0.00000006655891
  Self energy of the core charge distribution:                -88.69430999347530
  Core Hamiltonian energy:                                     25.73441331993914
  Hartree energy:                                              36.95190061747941
  Exchange-correlation energy:                                 -8.43943850164243
  Dispersion energy:                                           -0.00069894189557

  Total energy:                                               -34.44813343303584

  outer SCF iter =    1 RMS gradient =   0.23E-06 energy =        -34.4481334330
  outer SCF loop converged in   1 iterations or    5 steps


 MOMENTS
  The electric/magnetic moments are written to file:
  water_dimer_dipole.out


 ENERGY| Total FORCE_EVAL ( QS ) energy (a.u.):              -34.448133433037995


 Temperature scaled to requested temperature:    103.68 K  ->    103.69 K
 MD| Old VCOM =     0.0000007278   -0.0000002668    0.0000018180 a.u.
 MD| New VCOM =     0.0000000000   -0.0000000000    0.0000000000 a.u
 MD| Old VANG =    -0.0000001385    0.0000011640    0.0000001808 a.u.
 MD| New VANG =    -0.0000000000   -0.0000000000    0.0000000000 a.u

 *******************************************************************************
 ENSEMBLE TYPE                =                                              NVT
 STEP NUMBER                  =                                                6
 TIME [fs]                    =                                         3.000000
 CONSERVED QUANTITY [hartree] =                              -0.344459959270E+02

                                              INSTANTANEOUS             AVERAGES
 CPU TIME [s]                 =                       42.07                65.85
 ENERGY DRIFT PER ATOM [K]    =         -0.209175388333E+00  -0.126637393431E+00
 POTENTIAL ENERGY[hartree]    =         -0.344481334330E+02  -0.344481135794E+02
 KINETIC ENERGY [hartree]     =          0.197019046372E-02   0.191885956825E-02
 TEMPERATURE [K]              =                     103.689              100.988
 *******************************************************************************


 Number of electrons:                                                         16
 Number of occupied orbitals:                                                  8
 Number of molecular orbitals:                                                 8

 Number of orbital functions:                                                 46
 Number of independent orbital functions:                                     46

 Extrapolation method: ASPC


 SCF WAVEFUNCTION OPTIMIZATION

  ----------------------------------- OT ---------------------------------------
  Minimizer      : DIIS                : direct inversion
                                         in the iterative subspace
                                         using   7 DIIS vectors
                                         safer DIIS on
  Preconditioner : FULL_ALL            : diagonalization, state selective
  Precond_solver : DEFAULT
  stepsize       :    0.15000000                  energy_gap     :    0.08000000
  eps_taylor     :   0.10000E-15                  max_taylor     :             4
  ----------------------------------- OT ---------------------------------------

  Step     Update method      Time    Convergence         Total energy    Change
  ------------------------------------------------------------------------------
     1 OT DIIS     0.15E+00    6.2     0.00011128       -34.4480485992 -3.44E+01
     2 OT DIIS     0.15E+00    6.9     0.00005626       -34.4480489619 -3.63E-07
     3 OT DIIS     0.15E+00    6.8     0.00002613       -34.4480490300 -6.81E-08
     4 OT DIIS     0.15E+00    7.0     0.00000155       -34.4480490503 -2.03E-08
     5 OT DIIS     0.15E+00    6.9     0.00000081       -34.4480490504 -7.42E-11

  *** SCF run converged in     5 steps ***


  Electronic density on regular grids:        -15.9999998844        0.0000001156
  Core density on regular grids:               15.9999999995       -0.0000000005
  Total charge density on r-space grids:        0.0000001151
  Total charge density g-space grids:           0.0000001151

  Overlap energy of the core charge distribution:               0.00000005861183
  Self energy of the core charge distribution:                -88.69430999347530
  Core Hamiltonian energy:                                     25.71601641410834
  Hartree energy:                                              36.96529330866036
  Exchange-correlation energy:                                 -8.43435165186515
  Dispersion energy:                                           -0.00069718639749

  Total energy:                                               -34.44804905035741

  outer SCF iter =    1 RMS gradient =   0.81E-06 energy =        -34.4480490504
  outer SCF loop converged in   1 iterations or    5 steps


 MOMENTS
  The electric/magnetic moments are written to file:
  water_dimer_dipole.out


 ENERGY| Total FORCE_EVAL ( QS ) energy (a.u.):              -34.448049050364546


 *******************************************************************************
 ENSEMBLE TYPE                =                                              NVT
 STEP NUMBER                  =                                                7
 TIME [fs]                    =                                         3.500000
 CONSERVED QUANTITY [hartree] =                              -0.344459952305E+02

                                              INSTANTANEOUS             AVERAGES
 CPU TIME [s]                 =                       42.08                62.46
 ENERGY DRIFT PER ATOM [K]    =         -0.172520579040E+00  -0.133192134232E+00
 POTENTIAL ENERGY[hartree]    =         -0.344480490504E+02  -0.344481043610E+02
 KINETIC ENERGY [hartree]     =          0.167389892661E-02   0.188386519087E-02
 TEMPERATURE [K]              =                      88.096               99.146
 *******************************************************************************


 Number of electrons:                                                         16
 Number of occupied orbitals:                                                  8
 Number of molecular orbitals:                                                 8

 Number of orbital functions:                                                 46
 Number of independent orbital functions:                                     46

 Extrapolation method: ASPC


 SCF WAVEFUNCTION OPTIMIZATION

  ----------------------------------- OT ---------------------------------------
  Minimizer      : DIIS                : direct inversion
                                         in the iterative subspace
                                         using   7 DIIS vectors
                                         safer DIIS on
  Preconditioner : FULL_ALL            : diagonalization, state selective
  Precond_solver : DEFAULT
  stepsize       :    0.15000000                  energy_gap     :    0.08000000
  eps_taylor     :   0.10000E-15                  max_taylor     :             4
  ----------------------------------- OT ---------------------------------------

  Step     Update method      Time    Convergence         Total energy    Change
  ------------------------------------------------------------------------------
     1 OT DIIS     0.15E+00    6.0     0.00008567       -34.4479470974 -3.44E+01
     2 OT DIIS     0.15E+00    6.9     0.00004516       -34.4479472972 -2.00E-07
     3 OT DIIS     0.15E+00    7.2     0.00001887       -34.4479473383 -4.11E-08
     4 OT DIIS     0.15E+00    6.8     0.00000120       -34.4479473495 -1.12E-08
     5 OT DIIS     0.15E+00    6.9     0.00000049       -34.4479473496 -6.02E-11

  *** SCF run converged in     5 steps ***


  Electronic density on regular grids:        -15.9999998878        0.0000001122
  Core density on regular grids:               15.9999999995       -0.0000000005
  Total charge density on r-space grids:        0.0000001117
  Total charge density g-space grids:           0.0000001117

  Overlap energy of the core charge distribution:               0.00000005363608
  Self energy of the core charge distribution:                -88.69430999347530
  Core Hamiltonian energy:                                     25.70385356845938
  Hartree energy:                                              36.97421349436616
  Exchange-correlation energy:                                 -8.43100855155176
  Dispersion energy:                                           -0.00069592101749

  Total energy:                                               -34.44794734958293

  outer SCF iter =    1 RMS gradient =   0.49E-06 energy =        -34.4479473496
  outer SCF loop converged in   1 iterations or    5 steps


 MOMENTS
  The electric/magnetic moments are written to file:
  water_dimer_dipole.out


 ENERGY| Total FORCE_EVAL ( QS ) energy (a.u.):              -34.447947349582982


 Temperature scaled to requested temperature:     77.75 K  ->     77.75 K
 MD| Old VCOM =     0.0000007921   -0.0000002562    0.0000016047 a.u.
 MD| New VCOM =     0.0000000000    0.0000000000    0.0000000000 a.u
 MD| Old VANG =    -0.0000001641    0.0000010085    0.0000001777 a.u.
 MD| New VANG =    -0.0000000000    0.0000000000   -0.0000000000 a.u

 *******************************************************************************
 ENSEMBLE TYPE                =                                              NVT
 STEP NUMBER                  =                                                8
 TIME [fs]                    =                                         4.000000
 CONSERVED QUANTITY [hartree] =                              -0.344459938348E+02

                                              INSTANTANEOUS             AVERAGES
 CPU TIME [s]                 =                       42.01                59.90
 ENERGY DRIFT PER ATOM [K]    =         -0.990645297052E-01  -0.128926183667E+00
 POTENTIAL ENERGY[hartree]    =         -0.344479473496E+02  -0.344480847346E+02
 KINETIC ENERGY [hartree]     =          0.147741315821E-02   0.183305868679E-02
 TEMPERATURE [K]              =                      77.755               96.472
 *******************************************************************************


 Number of electrons:                                                         16
 Number of occupied orbitals:                                                  8
 Number of molecular orbitals:                                                 8

 Number of orbital functions:                                                 46
 Number of independent orbital functions:                                     46

 Extrapolation method: ASPC


 SCF WAVEFUNCTION OPTIMIZATION

  ----------------------------------- OT ---------------------------------------
  Minimizer      : DIIS                : direct inversion
                                         in the iterative subspace
                                         using   7 DIIS vectors
                                         safer DIIS on
  Preconditioner : FULL_ALL            : diagonalization, state selective
  Precond_solver : DEFAULT
  stepsize       :    0.15000000                  energy_gap     :    0.08000000
  eps_taylor     :   0.10000E-15                  max_taylor     :             4
  ----------------------------------- OT ---------------------------------------

  Step     Update method      Time    Convergence         Total energy    Change
  ------------------------------------------------------------------------------
     1 OT DIIS     0.15E+00    6.1     0.00007409       -34.4478437803 -3.44E+01
     2 OT DIIS     0.15E+00    6.9     0.00003504       -34.4478439509 -1.71E-07
     3 OT DIIS     0.15E+00    6.9     0.00001808       -34.4478439792 -2.82E-08
     4 OT DIIS     0.15E+00    6.9     0.00000119       -34.4478439879 -8.75E-09
     5 OT DIIS     0.15E+00    6.9     0.00000050       -34.4478439880 -4.90E-11

  *** SCF run converged in     5 steps ***


  Electronic density on regular grids:        -15.9999998910        0.0000001090
  Core density on regular grids:               15.9999999995       -0.0000000005
  Total charge density on r-space grids:        0.0000001085
  Total charge density g-space grids:           0.0000001085

  Overlap energy of the core charge distribution:               0.00000005142680
  Self energy of the core charge distribution:                -88.69430999347530
  Core Hamiltonian energy:                                     25.69826119080922
  Hartree energy:                                              36.97841460512090
  Exchange-correlation energy:                                 -8.42951474413456
  Dispersion energy:                                           -0.00069509769708

  Total energy:                                               -34.44784398795002

  outer SCF iter =    1 RMS gradient =   0.50E-06 energy =        -34.4478439880
  outer SCF loop converged in   1 iterations or    5 steps


 MOMENTS
  The electric/magnetic moments are written to file:
  water_dimer_dipole.out


 ENERGY| Total FORCE_EVAL ( QS ) energy (a.u.):              -34.447843987954734


 *******************************************************************************
 ENSEMBLE TYPE                =                                              NVT
 STEP NUMBER                  =                                                9
 TIME [fs]                    =                                         4.500000
 CONSERVED QUANTITY [hartree] =                              -0.344459929914E+02

                                              INSTANTANEOUS             AVERAGES
 CPU TIME [s]                 =                       42.10                57.92
 ENERGY DRIFT PER ATOM [K]    =         -0.546799348310E-01  -0.120676600463E+00
 POTENTIAL ENERGY[hartree]    =         -0.344478439880E+02  -0.344480579849E+02
 KINETIC ENERGY [hartree]     =          0.142502826864E-02   0.178772197366E-02
 TEMPERATURE [K]              =                      74.998               94.086
 *******************************************************************************


 Number of electrons:                                                         16
 Number of occupied orbitals:                                                  8
 Number of molecular orbitals:                                                 8

 Number of orbital functions:                                                 46
 Number of independent orbital functions:                                     46

 Extrapolation method: ASPC


 SCF WAVEFUNCTION OPTIMIZATION

  ----------------------------------- OT ---------------------------------------
  Minimizer      : DIIS                : direct inversion
                                         in the iterative subspace
                                         using   7 DIIS vectors
                                         safer DIIS on
  Preconditioner : FULL_ALL            : diagonalization, state selective
  Precond_solver : DEFAULT
  stepsize       :    0.15000000                  energy_gap     :    0.08000000
  eps_taylor     :   0.10000E-15                  max_taylor     :             4
  ----------------------------------- OT ---------------------------------------

  Step     Update method      Time    Convergence         Total energy    Change
  ------------------------------------------------------------------------------
     1 OT DIIS     0.15E+00    6.0     0.00013962       -34.4477653854 -3.44E+01
     2 OT DIIS     0.15E+00    6.8     0.00006742       -34.4477659979 -6.13E-07
     3 OT DIIS     0.15E+00    6.9     0.00003467       -34.4477661042 -1.06E-07
     4 OT DIIS     0.15E+00    7.0     0.00000147       -34.4477661371 -3.29E-08
     5 OT DIIS     0.15E+00    6.9     0.00000037       -34.4477661372 -8.05E-11

  *** SCF run converged in     5 steps ***


  Electronic density on regular grids:        -15.9999998935        0.0000001065
  Core density on regular grids:               15.9999999995       -0.0000000005
  Total charge density on r-space grids:        0.0000001060
  Total charge density g-space grids:           0.0000001060

  Overlap energy of the core charge distribution:               0.00000005212740
  Self energy of the core charge distribution:                -88.69430999347530
  Core Hamiltonian energy:                                     25.70011853443926
  Hartree energy:                                              36.97723708191175
  Exchange-correlation energy:                                 -8.43011702704524
  Dispersion energy:                                           -0.00069478518326

  Total energy:                                               -34.44776613722541

  outer SCF iter =    1 RMS gradient =   0.37E-06 energy =        -34.4477661372
  outer SCF loop converged in   1 iterations or    5 steps


 MOMENTS
  The electric/magnetic moments are written to file:
  water_dimer_dipole.out


 ENERGY| Total FORCE_EVAL ( QS ) energy (a.u.):              -34.447766137231852


 Temperature scaled to requested temperature:     72.94 K  ->     72.94 K
 MD| Old VCOM =     0.0000008883   -0.0000002736    0.0000015070 a.u.
 MD| New VCOM =     0.0000000000    0.0000000000   -0.0000000000 a.u
 MD| Old VANG =    -0.0000002198    0.0000010124    0.0000001960 a.u.
 MD| New VANG =    -0.0000000000   -0.0000000000    0.0000000000 a.u

 *******************************************************************************
 ENSEMBLE TYPE                =                                              NVT
 STEP NUMBER                  =                                               10
 TIME [fs]                    =                                         5.000000
 CONSERVED QUANTITY [hartree] =                              -0.344459926898E+02

                                              INSTANTANEOUS             AVERAGES
 CPU TIME [s]                 =                       41.93                56.32
 ENERGY DRIFT PER ATOM [K]    =         -0.388063577090E-01  -0.112489576187E+00
 POTENTIAL ENERGY[hartree]    =         -0.344477661372E+02  -0.344480288002E+02
 KINETIC ENERGY [hartree]     =          0.138601098187E-02   0.174755087448E-02
 TEMPERATURE [K]              =                      72.945               91.972
 *******************************************************************************


 Number of electrons:                                                         16
 Number of occupied orbitals:                                                  8
 Number of molecular orbitals:                                                 8

 Number of orbital functions:                                                 46
 Number of independent orbital functions:                                     46

 Extrapolation method: ASPC


 SCF WAVEFUNCTION OPTIMIZATION

  ----------------------------------- OT ---------------------------------------
  Minimizer      : DIIS                : direct inversion
                                         in the iterative subspace
                                         using   7 DIIS vectors
                                         safer DIIS on
  Preconditioner : FULL_ALL            : diagonalization, state selective
  Precond_solver : DEFAULT
  stepsize       :    0.15000000                  energy_gap     :    0.08000000
  eps_taylor     :   0.10000E-15                  max_taylor     :             4
  ----------------------------------- OT ---------------------------------------

  Step     Update method      Time    Convergence         Total energy    Change
  ------------------------------------------------------------------------------
     1 OT DIIS     0.15E+00    6.1     0.00008454       -34.4477135338 -3.44E+01
     2 OT DIIS     0.15E+00    7.1     0.00003950       -34.4477137617 -2.28E-07
     3 OT DIIS     0.15E+00    6.9     0.00002097       -34.4477137991 -3.74E-08
     4 OT DIIS     0.15E+00    6.9     0.00000113       -34.4477138107 -1.16E-08
     5 OT DIIS     0.15E+00    7.0     0.00000031       -34.4477138108 -5.35E-11

  *** SCF run converged in     5 steps ***


  Electronic density on regular grids:        -15.9999998956        0.0000001044
  Core density on regular grids:               15.9999999996       -0.0000000004
  Total charge density on r-space grids:        0.0000001040
  Total charge density g-space grids:           0.0000001039

  Overlap energy of the core charge distribution:               0.00000005563687
  Self energy of the core charge distribution:                -88.69430999347530
  Core Hamiltonian energy:                                     25.70918831642054
  Hartree energy:                                              36.97085806961185
  Exchange-correlation energy:                                 -8.43275534463371
  Dispersion energy:                                           -0.00069491433330

  Total energy:                                               -34.44771381077306

  outer SCF iter =    1 RMS gradient =   0.31E-06 energy =        -34.4477138108
  outer SCF loop converged in   1 iterations or    5 steps


 MOMENTS
  The electric/magnetic moments are written to file:
  water_dimer_dipole.out


 ENERGY| Total FORCE_EVAL ( QS ) energy (a.u.):              -34.447713810772655


 *******************************************************************************
 ENSEMBLE TYPE                =                                              NVT
 STEP NUMBER                  =                                               11
 TIME [fs]                    =                                         5.500000
 CONSERVED QUANTITY [hartree] =                              -0.344459934911E+02

                                              INSTANTANEOUS             AVERAGES
 CPU TIME [s]                 =                       42.18                55.04
 ENERGY DRIFT PER ATOM [K]    =         -0.809781077759E-01  -0.109624897241E+00
 POTENTIAL ENERGY[hartree]    =         -0.344477138108E+02  -0.344480001648E+02
 KINETIC ENERGY [hartree]     =          0.137474453845E-02   0.171365938939E-02
 TEMPERATURE [K]              =                      72.352               90.188
 *******************************************************************************


 Number of electrons:                                                         16
 Number of occupied orbitals:                                                  8
 Number of molecular orbitals:                                                 8

 Number of orbital functions:                                                 46
 Number of independent orbital functions:                                     46

 Extrapolation method: ASPC


 SCF WAVEFUNCTION OPTIMIZATION

  ----------------------------------- OT ---------------------------------------
  Minimizer      : DIIS                : direct inversion
                                         in the iterative subspace
                                         using   7 DIIS vectors
                                         safer DIIS on
  Preconditioner : FULL_ALL            : diagonalization, state selective
  Precond_solver : DEFAULT
  stepsize       :    0.15000000                  energy_gap     :    0.08000000
  eps_taylor     :   0.10000E-15                  max_taylor     :             4
  ----------------------------------- OT ---------------------------------------

  Step     Update method      Time    Convergence         Total energy    Change
  ------------------------------------------------------------------------------
     1 OT DIIS     0.15E+00    6.0     0.00008783       -34.4476767014 -3.44E+01
     2 OT DIIS     0.15E+00    7.0     0.00004048       -34.4476769526 -2.51E-07
     3 OT DIIS     0.15E+00    6.8     0.00002199       -34.4476769934 -4.08E-08
     4 OT DIIS     0.15E+00    6.9     0.00000116       -34.4476770058 -1.23E-08
     5 OT DIIS     0.15E+00    6.8     0.00000044       -34.4476770058 -4.90E-11

  *** SCF run converged in     5 steps ***


  Electronic density on regular grids:        -15.9999998969        0.0000001031
  Core density on regular grids:               15.9999999996       -0.0000000004
  Total charge density on r-space grids:        0.0000001026
  Total charge density g-space grids:           0.0000001026

  Overlap energy of the core charge distribution:               0.00000006179133
  Self energy of the core charge distribution:                -88.69430999347530
  Core Hamiltonian energy:                                     25.72450455936947
  Hartree energy:                                              36.95997751608925
  Exchange-correlation energy:                                 -8.43715374275721
  Dispersion energy:                                           -0.00069540683534

  Total energy:                                               -34.44767700581779

  outer SCF iter =    1 RMS gradient =   0.44E-06 energy =        -34.4476770058
  outer SCF loop converged in   1 iterations or    5 steps


 MOMENTS
  The electric/magnetic moments are written to file:
  water_dimer_dipole.out


 ENERGY| Total FORCE_EVAL ( QS ) energy (a.u.):              -34.447677005821483


 Temperature scaled to requested temperature:     67.82 K  ->     67.83 K
 MD| Old VCOM =     0.0000008949   -0.0000002768    0.0000012273 a.u.
 MD| New VCOM =     0.0000000000    0.0000000000   -0.0000000000 a.u
 MD| Old VANG =    -0.0000002683    0.0000009974    0.0000002026 a.u.
 MD| New VANG =     0.0000000000    0.0000000000   -0.0000000000 a.u

 *******************************************************************************
 ENSEMBLE TYPE                =                                              NVT
 STEP NUMBER                  =                                               12
 TIME [fs]                    =                                         6.000000
 CONSERVED QUANTITY [hartree] =                              -0.344459942950E+02

                                              INSTANTANEOUS             AVERAGES
 CPU TIME [s]                 =                       41.93                53.94
 ENERGY DRIFT PER ATOM [K]    =         -0.123286543767E+00  -0.110763367785E+00
 POTENTIAL ENERGY[hartree]    =         -0.344476770058E+02  -0.344479732348E+02
 KINETIC ENERGY [hartree]     =          0.128880544633E-02   0.167825489413E-02
 TEMPERATURE [K]              =                      67.829               88.325
 *******************************************************************************


 Number of electrons:                                                         16
 Number of occupied orbitals:                                                  8
 Number of molecular orbitals:                                                 8

 Number of orbital functions:                                                 46
 Number of independent orbital functions:                                     46

 Extrapolation method: ASPC


 SCF WAVEFUNCTION OPTIMIZATION

  ----------------------------------- OT ---------------------------------------
  Minimizer      : DIIS                : direct inversion
                                         in the iterative subspace
                                         using   7 DIIS vectors
                                         safer DIIS on
  Preconditioner : FULL_ALL            : diagonalization, state selective
  Precond_solver : DEFAULT
  stepsize       :    0.15000000                  energy_gap     :    0.08000000
  eps_taylor     :   0.10000E-15                  max_taylor     :             4
  ----------------------------------- OT ---------------------------------------

  Step     Update method      Time    Convergence         Total energy    Change
  ------------------------------------------------------------------------------
     1 OT DIIS     0.15E+00    6.0     0.00006718       -34.4476439830 -3.44E+01
     2 OT DIIS     0.15E+00    6.8     0.00002573       -34.4476441498 -1.67E-07
     3 OT DIIS     0.15E+00    6.8     0.00001073       -34.4476441762 -2.64E-08
     4 OT DIIS     0.15E+00    6.9     0.00000154       -34.4476441783 -2.14E-09
     5 OT DIIS     0.15E+00    6.8     0.00000035       -34.4476441784 -5.66E-11

  *** SCF run converged in     5 steps ***


  Electronic density on regular grids:        -15.9999998976        0.0000001024
  Core density on regular grids:               15.9999999996       -0.0000000004
  Total charge density on r-space grids:        0.0000001020
  Total charge density g-space grids:           0.0000001019

  Overlap energy of the core charge distribution:               0.00000006984905
  Self energy of the core charge distribution:                -88.69430999347530
  Core Hamiltonian energy:                                     25.74369530444975
  Hartree energy:                                              36.94630119599508
  Exchange-correlation energy:                                 -8.44263464209881
  Dispersion energy:                                           -0.00069611312082

  Total energy:                                               -34.44764417840105

  outer SCF iter =    1 RMS gradient =   0.35E-06 energy =        -34.4476441784
  outer SCF loop converged in   1 iterations or    5 steps


 MOMENTS
  The electric/magnetic moments are written to file:
  water_dimer_dipole.out


 ENERGY| Total FORCE_EVAL ( QS ) energy (a.u.):              -34.447644178406996


 *******************************************************************************
 ENSEMBLE TYPE                =                                              NVT
 STEP NUMBER                  =                                               13
 TIME [fs]                    =                                         6.500000
 CONSERVED QUANTITY [hartree] =                              -0.344459951259E+02

                                              INSTANTANEOUS             AVERAGES
 CPU TIME [s]                 =                       41.74                53.01
 ENERGY DRIFT PER ATOM [K]    =         -0.167018591871E+00  -0.115090692714E+00
 POTENTIAL ENERGY[hartree]    =         -0.344476441784E+02  -0.344479479228E+02
 KINETIC ENERGY [hartree]     =          0.141921724574E-02   0.165832892118E-02
 TEMPERATURE [K]              =                      74.692               87.276
 *******************************************************************************


 Number of electrons:                                                         16
 Number of occupied orbitals:                                                  8
 Number of molecular orbitals:                                                 8

 Number of orbital functions:                                                 46
 Number of independent orbital functions:                                     46

 Extrapolation method: ASPC


 SCF WAVEFUNCTION OPTIMIZATION

  ----------------------------------- OT ---------------------------------------
  Minimizer      : DIIS                : direct inversion
                                         in the iterative subspace
                                         using   7 DIIS vectors
                                         safer DIIS on
  Preconditioner : FULL_ALL            : diagonalization, state selective
  Precond_solver : DEFAULT
  stepsize       :    0.15000000                  energy_gap     :    0.08000000
  eps_taylor     :   0.10000E-15                  max_taylor     :             4
  ----------------------------------- OT ---------------------------------------

  Step     Update method      Time    Convergence         Total energy    Change
  ------------------------------------------------------------------------------
     1 OT DIIS     0.15E+00    6.0     0.00011752       -34.4475928404 -3.44E+01
     2 OT DIIS     0.15E+00    7.0     0.00005272       -34.4475933068 -4.66E-07
     3 OT DIIS     0.15E+00    6.9     0.00002954       -34.4475933820 -7.52E-08
     4 OT DIIS     0.15E+00    6.8     0.00000128       -34.4475934034 -2.14E-08
     5 OT DIIS     0.15E+00    6.9     0.00000039       -34.4475934035 -5.83E-11

  *** SCF run converged in     5 steps ***


  Electronic density on regular grids:        -15.9999998976        0.0000001024
  Core density on regular grids:               15.9999999995       -0.0000000005
  Total charge density on r-space grids:        0.0000001020
  Total charge density g-space grids:           0.0000001019

  Overlap energy of the core charge distribution:               0.00000008015738
  Self energy of the core charge distribution:                -88.69430999347530
  Core Hamiltonian energy:                                     25.76702065000115
  Hartree energy:                                              36.92966478868418
  Exchange-correlation energy:                                 -8.44927196641826
  Dispersion energy:                                           -0.00069696241954

  Total energy:                                               -34.44759340347040

  outer SCF iter =    1 RMS gradient =   0.39E-06 energy =        -34.4475934035
  outer SCF loop converged in   1 iterations or    5 steps


 MOMENTS
  The electric/magnetic moments are written to file:
  water_dimer_dipole.out


 ENERGY| Total FORCE_EVAL ( QS ) energy (a.u.):              -34.447593403476759


 Temperature scaled to requested temperature:     79.59 K  ->     79.59 K
 MD| Old VCOM =     0.0000009603   -0.0000003108    0.0000010891 a.u.
 MD| New VCOM =    -0.0000000000    0.0000000000   -0.0000000000 a.u
 MD| Old VANG =    -0.0000003472    0.0000010577    0.0000002249 a.u.
 MD| New VANG =    -0.0000000000    0.0000000000    0.0000000000 a.u

 *******************************************************************************
 ENSEMBLE TYPE                =                                              NVT
 STEP NUMBER                  =                                               14
 TIME [fs]                    =                                         7.000000
 CONSERVED QUANTITY [hartree] =                              -0.344459949536E+02

                                              INSTANTANEOUS             AVERAGES
 CPU TIME [s]                 =                       41.94                52.22
 ENERGY DRIFT PER ATOM [K]    =         -0.157950987063E+00  -0.118152142311E+00
 POTENTIAL ENERGY[hartree]    =         -0.344475934035E+02  -0.344479226000E+02
 KINETIC ENERGY [hartree]     =          0.151235194281E-02   0.164790199415E-02
 TEMPERATURE [K]              =                      79.594               86.728
 *******************************************************************************


 Number of electrons:                                                         16
 Number of occupied orbitals:                                                  8
 Number of molecular orbitals:                                                 8

 Number of orbital functions:                                                 46
 Number of independent orbital functions:                                     46

 Extrapolation method: ASPC


 SCF WAVEFUNCTION OPTIMIZATION

  ----------------------------------- OT ---------------------------------------
  Minimizer      : DIIS                : direct inversion
                                         in the iterative subspace
                                         using   7 DIIS vectors
                                         safer DIIS on
  Preconditioner : FULL_ALL            : diagonalization, state selective
  Precond_solver : DEFAULT
  stepsize       :    0.15000000                  energy_gap     :    0.08000000
  eps_taylor     :   0.10000E-15                  max_taylor     :             4
  ----------------------------------- OT ---------------------------------------

  Step     Update method      Time    Convergence         Total energy    Change
  ------------------------------------------------------------------------------
     1 OT DIIS     0.15E+00    5.9     0.00016463       -34.4475226546 -3.44E+01
     2 OT DIIS     0.15E+00    6.9     0.00007356       -34.4475235204 -8.66E-07
     3 OT DIIS     0.15E+00    6.9     0.00003928       -34.4475236527 -1.32E-07
     4 OT DIIS     0.15E+00    6.9     0.00000292       -34.4475236922 -3.96E-08
     5 OT DIIS     0.15E+00    6.9     0.00000065       -34.4475236926 -3.38E-10

  *** SCF run converged in     5 steps ***


  Electronic density on regular grids:        -15.9999998971        0.0000001029
  Core density on regular grids:               15.9999999995       -0.0000000005
  Total charge density on r-space grids:        0.0000001024
  Total charge density g-space grids:           0.0000001023

  Overlap energy of the core charge distribution:               0.00000009038930
  Self energy of the core charge distribution:                -88.69430999347530
  Core Hamiltonian energy:                                     25.78897879577049
  Hartree energy:                                              36.91400291895265
  Exchange-correlation energy:                                 -8.45549784660705
  Dispersion energy:                                           -0.00069765760989

  Total energy:                                               -34.44752369257979

  outer SCF iter =    1 RMS gradient =   0.65E-06 energy =        -34.4475236926
  outer SCF loop converged in   1 iterations or    5 steps


 MOMENTS
  The electric/magnetic moments are written to file:
  water_dimer_dipole.out


 ENERGY| Total FORCE_EVAL ( QS ) energy (a.u.):              -34.447523692590039


 *******************************************************************************
 ENSEMBLE TYPE                =                                              NVT
 STEP NUMBER                  =                                               15
 TIME [fs]                    =                                         7.500000
 CONSERVED QUANTITY [hartree] =                              -0.344459941914E+02

                                              INSTANTANEOUS             AVERAGES
 CPU TIME [s]                 =                       41.70                51.51
 ENERGY DRIFT PER ATOM [K]    =         -0.117835193480E+00  -0.118131012389E+00
 POTENTIAL ENERGY[hartree]    =         -0.344475236926E+02  -0.344478960062E+02
 KINETIC ENERGY [hartree]     =          0.142701664566E-02   0.163317630426E-02
 TEMPERATURE [K]              =                      75.103               85.953
 *******************************************************************************


 Number of electrons:                                                         16
 Number of occupied orbitals:                                                  8
 Number of molecular orbitals:                                                 8

 Number of orbital functions:                                                 46
 Number of independent orbital functions:                                     46

 Extrapolation method: ASPC


 SCF WAVEFUNCTION OPTIMIZATION

  ----------------------------------- OT ---------------------------------------
  Minimizer      : DIIS                : direct inversion
                                         in the iterative subspace
                                         using   7 DIIS vectors
                                         safer DIIS on
  Preconditioner : FULL_ALL            : diagonalization, state selective
  Precond_solver : DEFAULT
  stepsize       :    0.15000000                  energy_gap     :    0.08000000
  eps_taylor     :   0.10000E-15                  max_taylor     :             4
  ----------------------------------- OT ---------------------------------------

  Step     Update method      Time    Convergence         Total energy    Change
  ------------------------------------------------------------------------------
     1 OT DIIS     0.15E+00    6.0     0.00007886       -34.4474468505 -3.44E+01
     2 OT DIIS     0.15E+00    6.9     0.00003096       -34.4474470871 -2.37E-07
     3 OT DIIS     0.15E+00    6.9     0.00000770       -34.4474471295 -4.24E-08
     4 OT DIIS     0.15E+00    7.0     0.00000133       -34.4474471305 -9.89E-10
     5 OT DIIS     0.15E+00    7.0     0.00000021       -34.4474471305 -4.15E-11

  *** SCF run converged in     5 steps ***


  Electronic density on regular grids:        -15.9999998963        0.0000001037
  Core density on regular grids:               15.9999999995       -0.0000000005
  Total charge density on r-space grids:        0.0000001032
  Total charge density g-space grids:           0.0000001032

  Overlap energy of the core charge distribution:               0.00000009975906
  Self energy of the core charge distribution:                -88.69430999347530
  Core Hamiltonian energy:                                     25.80802663821898
  Hartree energy:                                              36.90041115756391
  Exchange-correlation energy:                                 -8.46087698692049
  Dispersion energy:                                           -0.00069804565636

  Total energy:                                               -34.44744713051020

  outer SCF iter =    1 RMS gradient =   0.21E-06 energy =        -34.4474471305
  outer SCF loop converged in   1 iterations or    5 steps


 MOMENTS
  The electric/magnetic moments are written to file:
  water_dimer_dipole.out


 ENERGY| Total FORCE_EVAL ( QS ) energy (a.u.):              -34.447447130508110


 Temperature scaled to requested temperature:     75.66 K  ->     75.66 K
 MD| Old VCOM =     0.0000009326   -0.0000003255    0.0000008424 a.u.
 MD| New VCOM =     0.0000000000   -0.0000000000    0.0000000000 a.u
 MD| Old VANG =    -0.0000004066    0.0000010253    0.0000002254 a.u.
 MD| New VANG =     0.0000000000   -0.0000000000   -0.0000000000 a.u

 *******************************************************************************
 ENSEMBLE TYPE                =                                              NVT
 STEP NUMBER                  =                                               16
 TIME [fs]                    =                                         8.000000
 CONSERVED QUANTITY [hartree] =                              -0.344459925485E+02

                                              INSTANTANEOUS             AVERAGES
 CPU TIME [s]                 =                       42.06                50.92
 ENERGY DRIFT PER ATOM [K]    =         -0.313690458345E-01  -0.112708389479E+00
 POTENTIAL ENERGY[hartree]    =         -0.344474471305E+02  -0.344478679514E+02
 KINETIC ENERGY [hartree]     =          0.143769734833E-02   0.162095886951E-02
 TEMPERATURE [K]              =                      75.665               85.310
[...]
 ENSEMBLE TYPE                =                                              NVT
 STEP NUMBER                  =                                              206
 TIME [fs]                    =                                       103.000000
 CONSERVED QUANTITY [hartree] =                              -0.344460221556E+02

                                              INSTANTANEOUS             AVERAGES
 CPU TIME [s]                 =                       65.29                58.87
 ENERGY DRIFT PER ATOM [K]    =         -0.158956443840E+01  -0.714652717912E+00
 POTENTIAL ENERGY[hartree]    =         -0.344464909222E+02  -0.344469061884E+02
 KINETIC ENERGY [hartree]     =          0.123775955842E-02   0.153518968075E-02
 TEMPERATURE [K]              =                      65.142               80.796
 *******************************************************************************


 Number of electrons:                                                         16
 Number of occupied orbitals:                                                  8
 Number of molecular orbitals:                                                 8

 Number of orbital functions:                                                 46
 Number of independent orbital functions:                                     46

 Extrapolation method: ASPC


 SCF WAVEFUNCTION OPTIMIZATION

  ----------------------------------- OT ---------------------------------------
  Minimizer      : DIIS                : direct inversion
                                         in the iterative subspace
                                         using   7 DIIS vectors
                                         safer DIIS on
  Preconditioner : FULL_ALL            : diagonalization, state selective
  Precond_solver : DEFAULT
  stepsize       :    0.15000000                  energy_gap     :    0.08000000
  eps_taylor     :   0.10000E-15                  max_taylor     :             4
  ----------------------------------- OT ---------------------------------------

  Step     Update method      Time    Convergence         Total energy    Change
  ------------------------------------------------------------------------------
     1 OT DIIS     0.15E+00   11.7     0.00005699       -34.4467120428 -3.44E+01
     2 OT DIIS     0.15E+00    8.2     0.00002811       -34.4467121399 -9.71E-08
     3 OT DIIS     0.15E+00    6.9     0.00001411       -34.4467121565 -1.67E-08
     4 OT DIIS     0.15E+00    9.5     0.00000113       -34.4467121618 -5.30E-09
     5 OT DIIS     0.15E+00   10.1     0.00000055       -34.4467121619 -3.83E-11

  *** SCF run converged in     5 steps ***


  Electronic density on regular grids:        -15.9999997502        0.0000002498
  Core density on regular grids:               15.9999999994       -0.0000000006
  Total charge density on r-space grids:        0.0000002491
  Total charge density g-space grids:           0.0000002491

  Overlap energy of the core charge distribution:               0.00000006855836
  Self energy of the core charge distribution:                -88.69430999347530
  Core Hamiltonian energy:                                     25.74435190671832
  Hartree energy:                                              36.94488655613046
  Exchange-correlation energy:                                 -8.44092526641156
  Dispersion energy:                                           -0.00071543338445

  Total energy:                                               -34.44671216186416

  outer SCF iter =    1 RMS gradient =   0.55E-06 energy =        -34.4467121619
  outer SCF loop converged in   1 iterations or    5 steps


 MOMENTS
  The electric/magnetic moments are written to file:
  water_dimer_dipole.out


 ENERGY| Total FORCE_EVAL ( QS ) energy (a.u.):              -34.446712161862848


 Temperature scaled to requested temperature:     74.53 K  ->     74.53 K
 MD| Old VCOM =    -0.0000010158    0.0000005027   -0.0000001663 a.u.
 MD| New VCOM =     0.0000000000    0.0000000000   -0.0000000000 a.u

 *******************************************************************************
 ENSEMBLE TYPE                =                                              NVT
 STEP NUMBER                  =                                              207
 TIME [fs]                    =                                       103.500000
 CONSERVED QUANTITY [hartree] =                              -0.344460253074E+02

                                              INSTANTANEOUS             AVERAGES
 CPU TIME [s]                 =                       61.37                58.89
 ENERGY DRIFT PER ATOM [K]    =         -0.175543927135E+01  -0.719680672276E+00
 POTENTIAL ENERGY[hartree]    =         -0.344467121619E+02  -0.344469052511E+02
 KINETIC ENERGY [hartree]     =          0.141618062703E-02   0.153461475779E-02
 TEMPERATURE [K]              =                      74.532               80.765
 *******************************************************************************


 Number of electrons:                                                         16
 Number of occupied orbitals:                                                  8
 Number of molecular orbitals:                                                 8

 Number of orbital functions:                                                 46
 Number of independent orbital functions:                                     46

 Extrapolation method: ASPC


 SCF WAVEFUNCTION OPTIMIZATION

  ----------------------------------- OT ---------------------------------------
  Minimizer      : DIIS                : direct inversion
                                         in the iterative subspace
                                         using   7 DIIS vectors
                                         safer DIIS on
  Preconditioner : FULL_ALL            : diagonalization, state selective
  Precond_solver : DEFAULT
  stepsize       :    0.15000000                  energy_gap     :    0.08000000
  eps_taylor     :   0.10000E-15                  max_taylor     :             4
  ----------------------------------- OT ---------------------------------------

  Step     Update method      Time    Convergence         Total energy    Change
  ------------------------------------------------------------------------------
     1 OT DIIS     0.15E+00    8.5     0.00007346       -34.4468305426 -3.44E+01
     2 OT DIIS     0.15E+00   25.3     0.00003310       -34.4468307188 -1.76E-07
     3 OT DIIS     0.15E+00    9.4     0.00001821       -34.4468307465 -2.76E-08
     4 OT DIIS     0.15E+00   10.0     0.00000120       -34.4468307548 -8.34E-09
     5 OT DIIS     0.15E+00   13.9     0.00000029       -34.4468307549 -5.61E-11

  *** SCF run converged in     5 steps ***


  Electronic density on regular grids:        -15.9999997496        0.0000002504
  Core density on regular grids:               15.9999999993       -0.0000000007
  Total charge density on r-space grids:        0.0000002498
  Total charge density g-space grids:           0.0000002497

  Overlap energy of the core charge distribution:               0.00000006840516
  Self energy of the core charge distribution:                -88.69430999347530
  Core Hamiltonian energy:                                     25.74145039326790
  Hartree energy:                                              36.94709015969289
  Exchange-correlation energy:                                 -8.44034729400754
  Dispersion energy:                                           -0.00071408876168

  Total energy:                                               -34.44683075487857

  outer SCF iter =    1 RMS gradient =   0.29E-06 energy =        -34.4468307549
  outer SCF loop converged in   1 iterations or    5 steps


 MOMENTS
  The electric/magnetic moments are written to file:
  water_dimer_dipole.out


 ENERGY| Total FORCE_EVAL ( QS ) energy (a.u.):              -34.446830754878313


 Temperature scaled to requested temperature:     78.39 K  ->     78.39 K
 MD| Old VCOM =    -0.0000009977    0.0000005035   -0.0000001186 a.u.
 MD| New VCOM =    -0.0000000000    0.0000000000    0.0000000000 a.u
 MD| Old VANG =     0.0000005644   -0.0000011527   -0.0000005858 a.u.
 MD| New VANG =    -0.0000000000   -0.0000000000    0.0000000000 a.u

 *******************************************************************************
 ENSEMBLE TYPE                =                                              NVT
 STEP NUMBER                  =                                              208
 TIME [fs]                    =                                       104.000000
 CONSERVED QUANTITY [hartree] =                              -0.344460259791E+02

                                              INSTANTANEOUS             AVERAGES
 CPU TIME [s]                 =                       79.19                58.98
 ENERGY DRIFT PER ATOM [K]    =         -0.179079334066E+01  -0.724830252413E+00
 POTENTIAL ENERGY[hartree]    =         -0.344468307549E+02  -0.344469048930E+02
 KINETIC ENERGY [hartree]     =          0.148957390478E-02   0.153439821523E-02
 TEMPERATURE [K]              =                      78.395               80.754
 *******************************************************************************


 Number of electrons:                                                         16
 Number of occupied orbitals:                                                  8
 Number of molecular orbitals:                                                 8

 Number of orbital functions:                                                 46
 Number of independent orbital functions:                                     46

 Extrapolation method: ASPC


 SCF WAVEFUNCTION OPTIMIZATION

  ----------------------------------- OT ---------------------------------------
  Minimizer      : DIIS                : direct inversion
                                         in the iterative subspace
                                         using   7 DIIS vectors
                                         safer DIIS on
  Preconditioner : FULL_ALL            : diagonalization, state selective
  Precond_solver : DEFAULT
  stepsize       :    0.15000000                  energy_gap     :    0.08000000
  eps_taylor     :   0.10000E-15                  max_taylor     :             4
  ----------------------------------- OT ---------------------------------------

  Step     Update method      Time    Convergence         Total energy    Change
  ------------------------------------------------------------------------------
     1 OT DIIS     0.15E+00    7.3     0.00004824       -34.4468419290 -3.44E+01
     2 OT DIIS     0.15E+00    8.4     0.00002031       -34.4468420080 -7.90E-08
     3 OT DIIS     0.15E+00   17.0     0.00001173       -34.4468420195 -1.15E-08
     4 OT DIIS     0.15E+00    9.1     0.00000094       -34.4468420226 -3.12E-09

  *** SCF run converged in     4 steps ***


  Electronic density on regular grids:        -15.9999997485        0.0000002515
  Core density on regular grids:               15.9999999993       -0.0000000007
  Total charge density on r-space grids:        0.0000002508
  Total charge density g-space grids:           0.0000002508

  Overlap energy of the core charge distribution:               0.00000007065438
  Self energy of the core charge distribution:                -88.69430999347530
  Core Hamiltonian energy:                                     25.74231263307401
  Hartree energy:                                              36.94668130445744
  Exchange-correlation energy:                                 -8.44081295858436
  Dispersion energy:                                           -0.00071307874874

  Total energy:                                               -34.44684202262256

  outer SCF iter =    1 RMS gradient =   0.94E-06 energy =        -34.4468420226
  outer SCF loop converged in   1 iterations or    4 steps


 MOMENTS
  The electric/magnetic moments are written to file:
  water_dimer_dipole.out


 ENERGY| Total FORCE_EVAL ( QS ) energy (a.u.):              -34.446842022653300


 Temperature scaled to requested temperature:     79.50 K  ->     79.51 K
 MD| Old VCOM =    -0.0000009784    0.0000005007   -0.0000000717 a.u.
 MD| New VCOM =    -0.0000000000    0.0000000000    0.0000000000 a.u

 *******************************************************************************
 ENSEMBLE TYPE                =                                              NVT
 STEP NUMBER                  =                                              209
 TIME [fs]                    =                                       104.500000
 CONSERVED QUANTITY [hartree] =                              -0.344460248367E+02

                                              INSTANTANEOUS             AVERAGES
 CPU TIME [s]                 =                       53.49                58.96
 ENERGY DRIFT PER ATOM [K]    =         -0.173066829755E+01  -0.729642874638E+00
 POTENTIAL ENERGY[hartree]    =         -0.344468420227E+02  -0.344469045921E+02
 KINETIC ENERGY [hartree]     =          0.151067492243E-02   0.153428470665E-02
 TEMPERATURE [K]              =                      79.505               80.748
 *******************************************************************************


 Number of electrons:                                                         16
 Number of occupied orbitals:                                                  8
 Number of molecular orbitals:                                                 8

 Number of orbital functions:                                                 46
 Number of independent orbital functions:                                     46

 Extrapolation method: ASPC


 SCF WAVEFUNCTION OPTIMIZATION

  ----------------------------------- OT ---------------------------------------
  Minimizer      : DIIS                : direct inversion
                                         in the iterative subspace
                                         using   7 DIIS vectors
                                         safer DIIS on
  Preconditioner : FULL_ALL            : diagonalization, state selective
  Precond_solver : DEFAULT
  stepsize       :    0.15000000                  energy_gap     :    0.08000000
  eps_taylor     :   0.10000E-15                  max_taylor     :             4
  ----------------------------------- OT ---------------------------------------

  Step     Update method      Time    Convergence         Total energy    Change
  ------------------------------------------------------------------------------
     1 OT DIIS     0.15E+00    8.6     0.00006608       -34.4467657362 -3.44E+01
     2 OT DIIS     0.15E+00    8.2     0.00002655       -34.4467658921 -1.56E-07
     3 OT DIIS     0.15E+00    7.7     0.00001479       -34.4467659156 -2.35E-08
     4 OT DIIS     0.15E+00    7.9     0.00000136       -34.4467659201 -4.50E-09
     5 OT DIIS     0.15E+00   10.9     0.00000040       -34.4467659201 -6.48E-11

  *** SCF run converged in     5 steps ***


  Electronic density on regular grids:        -15.9999997468        0.0000002532
  Core density on regular grids:               15.9999999993       -0.0000000007
  Total charge density on r-space grids:        0.0000002525
  Total charge density g-space grids:           0.0000002525

  Overlap energy of the core charge distribution:               0.00000007478759
  Self energy of the core charge distribution:                -88.69430999347530
  Core Hamiltonian energy:                                     25.74638076080345
  Hartree energy:                                              36.94405002309264
  Exchange-correlation energy:                                 -8.44217422027686
  Dispersion energy:                                           -0.00071256505386

  Total energy:                                               -34.44676592012233

  outer SCF iter =    1 RMS gradient =   0.40E-06 energy =        -34.4467659201
  outer SCF loop converged in   1 iterations or    5 steps


 MOMENTS
  The electric/magnetic moments are written to file:
  water_dimer_dipole.out


 ENERGY| Total FORCE_EVAL ( QS ) energy (a.u.):              -34.446765920122317


 Temperature scaled to requested temperature:     80.31 K  ->     80.31 K
 MD| Old VCOM =    -0.0000009630    0.0000004977   -0.0000000244 a.u.
 MD| New VCOM =    -0.0000000000   -0.0000000000    0.0000000000 a.u

 *******************************************************************************
 ENSEMBLE TYPE                =                                              NVT
 STEP NUMBER                  =                                              210
 TIME [fs]                    =                                       105.000000
 CONSERVED QUANTITY [hartree] =                              -0.344460215358E+02

                                              INSTANTANEOUS             AVERAGES
 CPU TIME [s]                 =                       56.48                58.95
 ENERGY DRIFT PER ATOM [K]    =         -0.155694675124E+01  -0.733582416908E+00
 POTENTIAL ENERGY[hartree]    =         -0.344467659201E+02  -0.344469039318E+02
 KINETIC ENERGY [hartree]     =          0.152592638693E-02   0.153424490513E-02
 TEMPERATURE [K]              =                      80.308               80.746
 *******************************************************************************


 Number of electrons:                                                         16
 Number of occupied orbitals:                                                  8
 Number of molecular orbitals:                                                 8

 Number of orbital functions:                                                 46
 Number of independent orbital functions:                                     46

 Extrapolation method: ASPC


 SCF WAVEFUNCTION OPTIMIZATION

  ----------------------------------- OT ---------------------------------------
  Minimizer      : DIIS                : direct inversion
                                         in the iterative subspace
                                         using   7 DIIS vectors
                                         safer DIIS on
  Preconditioner : FULL_ALL            : diagonalization, state selective
  Precond_solver : DEFAULT
  stepsize       :    0.15000000                  energy_gap     :    0.08000000
  eps_taylor     :   0.10000E-15                  max_taylor     :             4
  ----------------------------------- OT ---------------------------------------

  Step     Update method      Time    Convergence         Total energy    Change
  ------------------------------------------------------------------------------
     1 OT DIIS     0.15E+00    8.0     0.00009990       -34.4466509543 -3.44E+01
     2 OT DIIS     0.15E+00   10.9     0.00004304       -34.4466513007 -3.46E-07
     3 OT DIIS     0.15E+00    9.9     0.00002655       -34.4466513528 -5.21E-08
     4 OT DIIS     0.15E+00    8.8     0.00000176       -34.4466513677 -1.49E-08
     5 OT DIIS     0.15E+00    9.9     0.00000043       -34.4466513678 -1.09E-10

  *** SCF run converged in     5 steps ***


  Electronic density on regular grids:        -15.9999997443        0.0000002557
  Core density on regular grids:               15.9999999994       -0.0000000006
  Total charge density on r-space grids:        0.0000002550
  Total charge density g-space grids:           0.0000002550

  Overlap energy of the core charge distribution:               0.00000007979383
  Self energy of the core charge distribution:                -88.69430999347530
  Core Hamiltonian energy:                                     25.75256322730856
  Hartree energy:                                              36.93992968175752
  Exchange-correlation energy:                                 -8.44412166313134
  Dispersion energy:                                           -0.00071270009002

  Total energy:                                               -34.44665136783675
