       6
 i =        0, time =        0.000, E =       -34.4478920416
  H         5.6821684572        7.4609162981        8.0689954170
  H         7.0445292989        7.4987157681        7.3404634529
  O         6.0870348932        7.5014263346        7.1990799757
  H         9.3178315428        8.2718318127        6.9796365913
  H         9.2997220345        6.7281681873        6.9310045830
  O         9.0174607918        7.4879489376        7.4460378111
       6
 i =        1, time =        0.500, E =       -34.4479914374
  H         5.6888571248        7.4580159231        8.0698958426
  H         7.0467536339        7.4980692501        7.3390455267
  O         6.0855945726        7.5016114650        7.1990517419
  H         9.3258030863        8.2670036329        6.9804971275
  H         9.3071720978        6.7257473737        6.9304734009
  O         9.0173686989        7.4884428953        7.4460901463
       6
 i =        2, time =        1.000, E =       -34.4480743786
  H         5.6952129580        7.4550821020        8.0720000837
  H         7.0497207280        7.4974174359        7.3381102900
  O         6.0841556830        7.5017957124        7.1989560405
  H         9.3343277557        8.2632352951        6.9804270017
  H         9.3148972108        6.7230713243        6.9294359928
  O         9.0172003354        7.4888870643        7.4462176230
       6
 i =        3, time =        1.500, E =       -34.4481352432
  H         5.7009125615        7.4522050578        8.0752725887
  H         7.0528812413        7.4967930252        7.3375120799
  O         6.0828006175        7.5019798052        7.1987390271
  H         9.3431387889        8.2607340858        6.9794783644
  H         9.3224299512        6.7206707230        6.9283377037
  O         9.0169700574        7.4892310002        7.4464065284
       6
 i =        4, time =        2.000, E =       -34.4481722085
  H         5.7061737203        7.4492710571        8.0798251186
  H         7.0559045613        7.4961782836        7.3371268002
  O         6.0815091825        7.5021631242        7.1984642369
  H         9.3524743664        8.2593181764        6.9777225799
  H         9.3298269120        6.7188615341        6.9274683374
  O         9.0166943096        7.4894701260        7.4466178294
       6
 i =        5, time =        2.500, E =       -34.4481747757
  H         5.7109134103        7.4463616583        8.0852529578
  H         7.0583150586        7.4956005066        7.3368065787
  O         6.0803300059        7.5023481129        7.1981033280
  H         9.3619876893        8.2587745243        6.9754439959
  H         9.3367380937        6.7179971186        6.9271593940
  O         9.0163921506        7.4895919890        7.4468310463
       6
 i =        6, time =        3.000, E =       -34.4481334330
  H         5.7155302060        7.4433247519        8.0915655478
  H         7.0599214178        7.4950327689        7.3364565939
  O         6.0792142028        7.5025354060        7.1977215429
  H         9.3720103382        8.2587332592        6.9727719649
  H         9.3433984934        6.7182459112        6.9275933482
  O         9.0160776527        7.4896139016        7.4470114004
       6
 i =        7, time =        3.500, E =       -34.4480490504
  H         5.7199561318        7.4403134905        8.0979996334
  H         7.0604124776        7.4945120274        7.3359628170
  O         6.0782076096        7.5027239038        7.1973131963
  H         9.3819165068        8.2587929748        6.9701598908
  H         9.3494388843        6.7196889580        6.9289155841
  O         9.0157746353        7.4895516285        7.4471373309
       6
 i =        8, time =        4.000, E =       -34.4479473496
  H         5.7242162466        7.4374500428        8.1039248606
  H         7.0596994553        7.4940586300        7.3352985110
  O         6.0773430941        7.5028963480        7.1969794465
  H         9.3911360299        8.2585613058        6.9679894312
  H         9.3546318401        6.7221951232        6.9310842514
  O         9.0155222169        7.4894401023        7.4471699965
       6
 i =        9, time =        4.500, E =       -34.4478439880
  H         5.7287213743        7.4345587691        8.1092822005
  H         7.0577449930        7.4936514079        7.3343248934
  O         6.0765401114        7.5030723500        7.1966743803
  H         9.4001339138        8.2576886015        6.9664088787
  H         9.3593778809        6.7257525020        6.9342295174
  O         9.0153039442        7.4893011224        7.4471101453
       6
 i =       10, time =        5.000, E =       -34.4477661372
  H         5.7332086277        7.4318946063        8.1133375940
  H         7.0548698165        7.4933251629        7.3331083347
  O         6.0758546393        7.5032266277        7.1964959725
  H         9.4079927745        8.2560206199        6.9657483586
  H         9.3633669981        6.7297561562        6.9379486558
  O         9.0151570480        7.4891832777        7.4469443840
       6
 i =       11, time =        5.500, E =       -34.4477138108
  H         5.7380375435        7.4292697521        8.1161304798
  H         7.0510972993        7.4930637719        7.3314980578
  O         6.0752055135        7.5033796574        7.1963970930
  H         9.4152193174        8.2533194780        6.9661240351
  H         9.3670334225        6.7341166174        6.9423663044
  O         9.0150588913        7.4891058568        7.4466752332
       6
 i =       12, time =        6.000, E =       -34.4476770058
  H         5.7431916661        7.4267021430        8.1175602265
  H         7.0467853041        7.4928699706        7.3295010389
  O         6.0745827419        7.5035200380        7.1964348997
  H         9.4216913298        8.2495957851        6.9676082593
  H         9.3705050835        6.7383503017        6.9472338464
  O         9.0150190719        7.4891021135        7.4462972564
       6
 i =       13, time =        6.500, E =       -34.4476441784
  H         5.7483561250        7.4243005743        8.1175513791
  H         7.0425110038        7.4927609277        7.3271620344
  O         6.0739827545        7.5036519161        7.1965610777
  H         9.4271508827        8.2451478159        6.9701580855
  H         9.3738016194        6.7417951935        6.9521373630
  O         9.0150169403        7.4891898376        7.4458560258
       6
 i =       14, time =        7.000, E =       -34.4475934035
  H         5.7540860491        7.4217434993        8.1162825768
  H         7.0381934470        7.4927244576        7.3241855403
  O         6.0733166583        7.5037816678        7.1968310236
  H         9.4323333337        8.2396640930        6.9740140734
  H         9.3775060251        6.7443926272        6.9574624385
  O         9.0150522717        7.4893995235        7.4452960193
       6
 i =       15, time =        7.500, E =       -34.4475236926
  H         5.7594788445        7.4193224771        8.1141444571
  H         7.0348059587        7.4927773276        7.3208890612
  O         6.0726405573        7.5039055439        7.1971513509
  H         9.4367393142        8.2341944170        6.9785912496
  H         9.3812982855        6.7453993582        6.9624075206
  O         9.0150911948        7.4897041097        7.4447241698
       6
 i =       16, time =        8.000, E =       -34.4474471305
  H         5.7646493245        7.4168620790        8.1115060471
  H         7.0325458338        7.4929204981        7.3171089098
  O         6.0719152875        7.5040208990        7.1975572484
  H         9.4408202201        8.2289237079        6.9838583831
  H         9.3854629022        6.7446358144        6.9671275645
  O         9.0151309179        7.4901089450        7.4441099284
       6
 i =       17, time =        8.500, E =       -34.4473902493
  H         5.7691273650        7.4144330456        8.1089304362
  H         7.0317505813        7.4931583277        7.3129815308
  O         6.0711644797        7.5041364221        7.1979594254
  H         9.4446420258        8.2245918049        6.9893349584
  H         9.3898038222        6.7420812859        6.9714401310
  O         9.0151410492        7.4905632724        7.4435174772
       6
 i =       18, time =        9.000, E =       -34.4473865318
  H         5.7725688007        7.4121037559        8.1070590419
  H         7.0324765998        7.4934735395        7.3087336192
  O         6.0704409875        7.5042377566        7.1983479884
  H         9.4482707090        8.2218178538        6.9944388519
  H         9.3940250902        6.7380869011        6.9752300210
  O         9.0151233626        7.4910092571        7.4429638029
       6
 i =       19, time =        9.500, E =       -34.4474499912
  H         5.7751559326        7.4096284006        8.1060506404
  H         7.0346331031        7.4939029591        7.3039610022
  O         6.0696878154        7.5043483502        7.1986963170
  H         9.4522417794        8.2206369513        6.9994584353
  H         9.3983598542        6.7326443345        6.9790516868
  O         9.0150598343        7.4914426958        7.4424245956
       6
 i =       20, time =       10.000, E =       -34.4475701698
  H         5.7768281591        7.4069885899        8.1062301387
  H         7.0379583397        7.4944424855        7.2987030207
  O         6.0689384022        7.5044573209        7.1990216713
  H         9.4566712314        8.2212458785        7.0041716086
  H         9.4025979093        6.7262214772        6.9830790353
  O         9.0149644850        7.4918257853        7.4418726850
       6
 i =       21, time =       10.500, E =       -34.4477134144
  H         5.7775736544        7.4041918286        8.1076511079
  H         7.0420294538        7.4950937616        7.2929937906
  O         6.0682260159        7.5045730370        7.1992811656
  H         9.4615870751        8.2236131492        7.0085411635
  H         9.4065080580        6.7193761056        6.9875535144
  O         9.0148440487        7.4921164014        7.4413307588
       6
 i =       22, time =       11.000, E =       -34.4478351429
  H         5.7775017898        7.4012337696        8.1102672369
  H         7.0463782975        7.4958639681        7.2868366777
  O         6.0675538778        7.5046929698        7.1995120058
  H         9.4669421292        8.2275417403        7.0125905395
  H         9.4099044919        6.7126069804        6.9926826072
  O         9.0147004274        7.4923111199        7.4407439458
       6
 i =       23, time =       11.500, E =       -34.4478947026
  H         5.7767889811        7.3982045183        8.1137054064
  H         7.0504292303        7.4967298772        7.2804087979
  O         6.0669741369        7.5048157048        7.1996906329
  H         9.4724972713        8.2325277727        7.0164144831
  H         9.4125825971        6.7065280052        6.9985470252
  O         9.0145657975        7.4923873109        7.4401386434
       6
 i =       24, time =       12.000, E =       -34.4478833872
  H         5.7756948914        7.3951778251        8.1175635447
  H         7.0537014714        7.4976719542        7.2738622094
  O         6.0665025116        7.5049289163        7.1998699160
  H         9.4779767873        8.2380022257        7.0201135122
  H         9.4144366180        6.7015654332        7.0051279893
  O         9.0144616146        7.4923631672        7.4394708083
       6
 i =       25, time =       12.500, E =       -34.4478203122
  H         5.7744210024        7.3921688191        8.1214066901
  H         7.0558933844        7.4987037010        7.2671757261
  O         6.0661278058        7.5050458098        7.2000470753
  H         9.4832354644        8.2434951925        7.0240025281
  H         9.4154812041        6.6978585948        7.0125708410
  O         9.0143856908        7.4922564572        7.4387551860
       6
 i =       26, time =       13.000, E =       -34.4477380646
  H         5.7732093399        7.3891449821        8.1249128070
  H         7.0568275040        7.4998335783        7.2602769830
  O         6.0658500825        7.5051522094        7.2002785076
  H         9.4881848960        8.2486202713        7.0283191223
  H         9.4158056632        6.6954085034        7.0209642405
  O         9.0143612340        7.4920954058        7.4379240927
       6
 i =       27, time =       13.500, E =       -34.4476857559
  H         5.7723590203        7.3864401325        8.1273446776
  H         7.0563442956        7.5009510592        7.2538929413
  O         6.0656809809        7.5052481340        7.2005333779
  H         9.4922046555        8.2524651308        7.0328631402
  H         9.4155234626        6.6943340197        7.0294316888
  O         9.0143826018        7.4919233153        7.4370933127
       6
 i =       28, time =       14.000, E =       -34.4476812180
  H         5.7719681003        7.3837764421        8.1287408555
  H         7.0544598772        7.5021620951        7.2474077171
  O         6.0655905808        7.5053300003        7.2008802052
  H         9.4956341819        8.2551546276        7.0381686843
  H         9.4148103108        6.6942906095        7.0386726607
  O         9.0144560796        7.4917614121        7.4361331032
       6
 i =       29, time =       14.500, E =       -34.4477181839
  H         5.7721589275        7.3813982820        8.1288026852
  H         7.0515006098        7.5033649316        7.2414262463
  O         6.0655644004        7.5054032945        7.2012683320
  H         9.4981668467        8.2562779661        7.0438973692
  H         9.4139650691        6.6949412470        7.0477661666
  O         9.0145535047        7.4916489654        7.4351774118
       6
 i =       30, time =       15.000, E =       -34.4477732678
  H         5.7729805712        7.3793336622        8.1276247790
  H         7.0478726512        7.5045186649        7.2361271067
  O         6.0655810408        7.5054544033        7.2017100995
  H         9.4998334494        8.2558638235        7.0498044954
  H         9.4132802576        6.6958493708        7.0562345895
  O         9.0146603405        7.4916201288        7.4342173636
       6
 i =       31, time =       15.500, E =       -34.4478123669
  H         5.7744567831        7.3773975407        8.1252423940
  H         7.0436616734        7.5057189392        7.2311162149
  O         6.0656158836        7.5055030694        7.2022017638
  H         9.5009295348        8.2540204784        7.0563357265
  H         9.4129571127        6.6966566910        7.0646162067
  O         9.0147516976        7.4916817948        7.4332439735
       6
 i =       32, time =       16.000, E =       -34.4477998622
  H         5.7764598072        7.3756556088        8.1221229334
  H         7.0395597246        7.5068824427        7.2267332033
  O         6.0656449556        7.5055355862        7.2027192155
  H         9.5016039136        8.2511443428        7.0628655147
  H         9.4132556269        6.6969345506        7.0721601115
  O         9.0148006649        7.4918457051        7.4322879079
       6
 i =       33, time =       16.500, E =       -34.4477130974
  H         5.7790649920        7.3738853441        8.1183035695
  H         7.0356015482        7.5081329994        7.2225633030
  O         6.0656486206        7.5055737879        7.2032614047
  H         9.5022227507        8.2473095948        7.0699248908
  H         9.4144016414        6.6963876463        7.0795501847
  O         9.0147731125        7.4921150623        7.4313295538
       6
 i =       34, time =       17.000, E =       -34.4475486000
  H         5.7821621700        7.3720150746        8.1143271666
  H         7.0322816233        7.5094566689        7.2186706711
  O         6.0656075079        7.5056069882        7.2038190231
  H         9.5031328872        8.2430128686        7.0771455120
  H         9.4165609083        6.6948024395        7.0865716461
  O         9.0146407381        7.4924830331        7.4303406389
       6
 i =       35, time =       17.500, E =       -34.4473578140
  H         5.7853997088        7.3700723352        8.1109269464
  H         7.0301697534        7.5107916753        7.2152800908
  O         6.0655104144        7.5056538791        7.2043003619
  H         9.5046954590        8.2390161287        7.0839471824
  H         9.4196719586        6.6922155965        7.0929005988
  O         9.0143739549        7.4928879396        7.4294495312
       6
 i =       36, time =       18.000, E =       -34.4472006796
  H         5.7888547235        7.3678378668        8.1084712850
  H         7.0294113003        7.5122167494        7.2121856773
  O         6.0653442264        7.5057064582        7.2047275206
  H         9.5073939368        8.2356067841        7.0904222466
  H         9.4239035316        6.6886099194        7.0989301684
  O         9.0139377049        7.4933243139        7.4285504050
       6
 i =       37, time =       18.500, E =       -34.4471592264
  H         5.7920368617        7.3654734527        8.1075951780
  H         7.0301661623        7.5136002618        7.2096926024
  O         6.0651298455        7.5057794336        7.2050072131
  H         9.5112762607        8.2335098459        7.0958304090
  H         9.4287019227        6.6846385470        7.1042657366
  O         9.0133581643        7.4936941290        7.4277944406
       6
 i =       38, time =       19.000, E =       -34.4472567559
  H         5.7950153677        7.3628592461        8.1084904908
  H         7.0323101163        7.5149772975        7.2076979360
  O         6.0648714149        7.5058607887        7.2051626437
  H         9.5165765276        8.2328252161        7.1002062388
  H         9.4340102148        6.6806016424        7.1091912225
  O         9.0126282247        7.4939842694        7.4270859748
       6
 i =       39, time =       19.500, E =       -34.4474527290
  H         5.7977921610        7.3599867382        8.1111140962
  H         7.0355769261        7.5163610185        7.2061871229
  O         6.0645864938        7.5059677125        7.2051724631
  H         9.5233144836        8.2334718016        7.1037050404
  H         9.4396345792        6.6769009255        7.1139832061
  O         9.0117543875        7.4941622922        7.4264707340
       6
 i =       40, time =       20.000, E =       -34.4476551440
  H         5.8003352023        7.3570307242        8.1151009266
  H         7.0393832922        7.5176699020        7.2052239835
  O         6.0643068808        7.5060773738        7.2050886528
  H         9.5309224076        8.2351107766        7.1062407317
  H         9.4450737413        6.6741256379        7.1185100552
  O         9.0108129472        7.4942268320        7.4259054877
       6
 i =       41, time =       20.500, E =       -34.4477914887
  H         5.8029468470        7.3538338570        8.1202668925
  H         7.0435697337        7.5190056380        7.2047054974
  O         6.0640346538        7.5062091830        7.2048866961
  H         9.5396718230        8.2373834442        7.1083098736
  H         9.4505650224        6.6723582518        7.1233047295
  O         9.0097608666        7.4941794530        7.4253680456
       6
 i =       42, time =       21.000, E =       -34.4478050714
  H         5.8057147292        7.3505939978        8.1259357714
  H         7.0475135903        7.5203056152        7.2046604968
  O         6.0637951893        7.5063386573        7.2046542647
  H         9.5488203822        8.2396618968        7.1100311200
  H         9.4557633428        6.6719026971        7.1282405266
  O         9.0086751124        7.4940566023        7.4248120777
       6
 i =       43, time =       21.500, E =       -34.4477016814
  H         5.8089071492        7.3472611614        8.1317202227
  H         7.0509694115        7.5216311433        7.2050590279
  O         6.0635979802        7.5064818223        7.2043702119
  H         9.5583664557        8.2414556979        7.1118352701
  H         9.4608187241        6.6728321999        7.1336592470
  O         9.0075355808        7.4938678856        7.4242364688
       6
 i =       44, time =       22.000, E =       -34.4475411038
  H         5.8125994957        7.3440335675        8.1369093919
  H         7.0534509959        7.5229287453        7.2058856864
  O         6.0634593067        7.5066123049        7.2041297259
  H         9.5675512714        8.2421818448        7.1138541498
  H         9.4655324506        6.6751186920        7.1393645003
  O         9.0064123107        7.4936691056        7.4235959592
       6
 i =       45, time =       22.500, E =       -34.4474087204
  H         5.8168363064        7.3410256039        8.1409099956
  H         7.0546902269        7.5241939071        7.2070769294
  O         6.0633930507        7.5067401632        7.2039197413
  H         9.5759327544        8.2414085819        7.1163633542
  H         9.4698879674        6.6785603088        7.1453415434
  O         9.0053345583        7.4934832133        7.4229287337
       6
 i =       46, time =       23.000, E =       -34.4473735724
  H         5.8216467308        7.3383204420        8.1434000186
  H         7.0545571178        7.5254109308        7.2085809536
  O         6.0633995548        7.5068430468        7.2038157994
  H         9.5831346732        8.2389219615        7.1194158366
  H         9.4739222049        6.6828502885        7.1514385975
  O         9.0043298081        7.4933610883        7.4221891909
       6
 i =       47, time =       23.500, E =       -34.4474545599
  H         5.8270325854        7.3359257102        8.1441719417
  H         7.0530761718        7.5266080322        7.2103264716
  O         6.0634818294        7.5069372696        7.2037834852
  H         9.5890776924        8.2346216232        7.1232031359
  H         9.4777874026        6.6876401143        7.1576984753
  O         9.0033888654        7.4933123821        7.4214147111
       6
 i =       48, time =       24.000, E =       -34.4476174663
  H         5.8329618635        7.3338287806        8.1432843796
  H         7.0503877816        7.5277952454        7.2122537561
  O         6.0636310394        7.5070037209        7.2038761468
  H         9.5937188066        8.2286288989        7.1276796696
  H         9.4816347783        6.6925359330        7.1640219771
  O         9.0025069846        7.4933734532        7.4205612789
       6
 i =       49, time =       24.500, E =       -34.4477815968
  H         5.8391181030        7.3320503213        8.1408989140
  H         7.0468506865        7.5289703425        7.2142035093
  O         6.0638373584        7.5070607572        7.2040371086
  H         9.5970555342        8.2213914346        7.1327527749
  H         9.4854999025        6.6969586815        7.1702279626
  O         9.0016893233        7.4935329657        7.4197028297
       6
 i =       50, time =       25.000, E =       -34.4478622224
  H         5.8455244842        7.3304624112        8.1373634723
  H         7.0427431211        7.5301851029        7.2161481350
  O         6.0640896597        7.5070930215        7.2043023129
  H         9.5993987000        8.2131884890        7.1383830932
  H         9.4896118699        6.7006619559        7.1764074692
  O         9.0008940526        7.4938088959        7.4187800904
       6
 i =       51, time =       25.500, E =       -34.4477926847
  H         5.8517017694        7.3290310718        8.1332507159
  H         7.0386744053        7.5314333107        7.2178963375
  O         6.0643673700        7.5071235643        7.2045908983
  H         9.6010217362        8.2048997684        7.1442777417
  H         9.4938772771        6.7031855334        7.1823650169
  O         9.0001223359        7.4941541946        7.4178808181
       6
 i =       52, time =       26.000, E =       -34.4475727135
  H         5.8575331942        7.3276099654        8.1291428454
  H         7.0350556944        7.5327559591        7.2193886139
  O         6.0646548711        7.5071377951        7.2049218666
  H         9.6023606069        8.1970983187        7.1502584193
  H         9.4983523737        6.7044186674        7.1881641550
  O         8.9993402933        7.4945608703        7.4169603990
       6
 i =       53, time =       26.500, E =       -34.4472621355
  H         5.8628259272        7.3260695021        8.1255442133
  H         7.0322957714        7.5342076365        7.2205288106
  O         6.0649448412        7.5071623088        7.2052225036
  H         9.6038919593        8.1903525902        7.1562679236
  H         9.5029946069        6.7043120364        7.1939659202
  O         8.9985143489        7.4949742574        7.4160594045
       6
 i =       54, time =       27.000, E =       -34.4469934360
  H         5.8671468091        7.3243684892        8.1232133367
  H         7.0308672223        7.5357315513        7.2211963773
  O         6.0652090152        7.5071807309        7.2054911536
  H         9.6059250421        8.1855928314        7.1617682780
  H         9.5074148908        6.7030174579        7.1995117959
  O         8.9976754644        7.4953486633        7.4151895986
       6
 i =       55, time =       27.500, E =       -34.4468597988
  H         5.8705839003        7.3223413845        8.1223377523
  H         7.0308806866        7.5374397095        7.2213569495
  O         6.0654603885        7.5072185886        7.2056823065
  H         9.6088641427        8.1829070386        7.1670269588
  H         9.5116475086        6.7006776659        7.2052477757
  O         8.9967705431        7.4956473876        7.4143419795
       6
 i =       56, time =       28.000, E =       -34.4469117371
  H         5.8728561709        7.3200950540        8.1231614738
  H         7.0323310017        7.5392028729        7.2209828053
  O         6.0656791455        7.5072548953        7.2058126251
  H         9.6125676674        8.1826281674        7.1715654401
  H         9.5151590286        6.6978101709        7.2107985454
  O         8.9958800490        7.4958392766        7.4135401703
       6
 i =       57, time =       28.500, E =       -34.4471038188
  H         5.8741268844        7.3175167212        8.1255676806
  H         7.0351227492        7.5411340209        7.2200397679
  O         6.0658892697        7.5073112263        7.2058612553
  H         9.6171616105        8.1845401239        7.1757868890
  H         9.5179583098        6.6945609849        7.2166281063
  O         8.9949671832        7.4959072418        7.4127599781
       6
 i =       58, time =       29.000, E =       -34.4473283808
  H         5.8744963042        7.3146663936        8.1292798209
  H         7.0389361767        7.5432023677        7.2185554301
  O         6.0660993285        7.5073646230        7.2058804768
  H         9.6223328735        8.1883051248        7.1797306658
  H         9.5198476047        6.6912931371        7.2227385500
  O         8.9940694039        7.4958709091        7.4119623158
       6
 i =       59, time =       29.500, E =       -34.4474741763
  H         5.8740921890        7.3116734764        8.1337413968
  H         7.0433245826        7.5453760034        7.2165671478
  O         6.0663262774        7.5074302153        7.2058657851
  H         9.6276349692        8.1933320173        7.1835813663
  H         9.5206697675        6.6882923846        7.2291525879
  O         8.9932278243        7.4957283321        7.4111714743
       6
 i =       60, time =       30.000, E =       -34.4474902994
  H         5.8731526168        7.3087831627        8.1382007156
  H         7.0476138718        7.5475163209        7.2142409164
  O         6.0665740884        7.5074789635        7.2058807176
  H         9.6323464022        8.1987731073        7.1872914982
  H         9.5203555646        6.6859134149        7.2355619904
  O         8.9925155761        7.4955329696        7.4103832737
       6
 i =       61, time =       30.500, E =       -34.4474107390
  H         5.8718759715        7.3061243769        8.1420592444
  H         7.0513644865        7.5495943870        7.2116550970
  O         6.0668584268        7.5075255914        7.2059290185
  H         9.6360525252        8.2039808258        7.1910571765
  H         9.5189565891        6.6842192647        7.2419617355
  O         8.9919548618        7.4953006552        7.4096147088
       6
 i =       62, time =       31.000, E =       -34.4472990306
  H         5.8703880303        7.3036368238        8.1450897520
  H         7.0544211247        7.5516892332        7.2087465758
  O         6.0672044176        7.5075474518        7.2060633995
  H         9.6386026239        8.2087591404        7.1951733258
  H         9.5164986921        6.6831311142        7.2486662882
  O         8.9915300184        7.4950701928        7.4087928948
       6
 i =       63, time =       31.500, E =       -34.4472175789
  H         5.8687434622        7.3012875210        8.1470003263
  H         7.0566258740        7.5538959085        7.2054115838
  O         6.0676441179        7.5075647514        7.2062907016
  H         9.6398258096        8.2128981624        7.2000158533
  H         9.5129418594        6.6824942196        7.2560261143
  O         8.9912286585        7.4948404293        7.4078902258
       6
 i =       64, time =       32.000, E =       -34.4472229305
  H         5.8671100695        7.2991712535        8.1474527171
  H         7.0576869136        7.5561489996        7.2017641881
  O         6.0681793296        7.5075505137        7.2066466173
  H         9.6394497629        8.2160123485        7.2055593347
  H         9.5085014283        6.6821863746        7.2638863774
  O         8.9910602335        7.4946684457        7.4068965833
       6
 i =       65, time =       32.500, E =       -34.4473349280