#     Step Nr.          Time[fs]        Kin.[a.u.]          Temp[K]            Pot.[a.u.]        Cons Qty[a.u.]        UsedTime[s]
         0            0.000000         0.001900089       100.000000000       -34.447892042       -34.445991952         0.000000000
         1            0.500000         0.001959593       103.131645279       -34.447991437       -34.445992739       185.073666792
         2            1.000000         0.001969214       103.637989099       -34.448074379       -34.445993142        42.049116800
         3            1.500000         0.001879602        98.921787165       -34.448135243       -34.445994128        42.244637189
         4            2.000000         0.001853411        97.543343220       -34.448172209       -34.445994981        42.128176343
         5            2.500000         0.001881147        99.003073114       -34.448174776       -34.445996021        41.547305437
         6            3.000000         0.001970190       103.689366664       -34.448133433       -34.445995927        42.074951030
         7            3.500000         0.001673899        88.095807362       -34.448049050       -34.445995230        42.076572661
         8            4.000000         0.001477413        77.754936640       -34.447947350       -34.445993835        42.006877266
         9            4.500000         0.001425028        74.997966630       -34.447843988       -34.445992991        42.097687915
        10            5.000000         0.001386011        72.944521632       -34.447766137       -34.445992690        41.932349457
        11            5.500000         0.001374745        72.351578765       -34.447713811       -34.445993491        42.178464587
        12            6.000000         0.001288805        67.828681005       -34.447677006       -34.445994295        41.928682216
        13            6.500000         0.001419217        74.692137679       -34.447644178       -34.445995126        41.735984021
        14            7.000000         0.001512352        79.593733708       -34.447593403       -34.445994954        41.940652013
        15            7.500000         0.001427017        75.102613139       -34.447523693       -34.445994191        41.696595566
        16            8.000000         0.001437697        75.664728993       -34.447447131       -34.445992548        42.055611914
        17            8.500000         0.001313656        69.136540082       -34.447390249       -34.445991150        42.102875343
        18            9.000000         0.001279582        67.343264003       -34.447386532       -34.445990317        42.119245622
        19            9.500000         0.001329940        69.993560466       -34.447449991       -34.445991162        42.294691744
        20           10.000000         0.001469101        77.317480458       -34.447570170       -34.445993118        41.631128209
        21           10.500000         0.001631287        85.853157445       -34.447713414       -34.445996192        41.469505394
        22           11.000000         0.001848056        97.261544991       -34.447835143       -34.445998548        41.630781621
        23           11.500000         0.001766072        92.946800603       -34.447894703       -34.445999666        41.382380107
        24           12.000000         0.001817414        95.648900950       -34.447883387       -34.445998558        41.848036779
        25           12.500000         0.001759999        92.627176156       -34.447820312       -34.445996527        41.869871657
        26           13.000000         0.001715325        90.276044014       -34.447738065       -34.445993910        42.068771475
        27           13.500000         0.001565611        82.396698131       -34.447685756       -34.445992958        42.031609895
        28           14.000000         0.001574119        82.844475354       -34.447681218       -34.445993347        41.605754588
        29           14.500000         0.001417548        74.604281003       -34.447718184       -34.445995637        41.782750769
        30           15.000000         0.001423163        74.899824788       -34.447773268       -34.445998170        34.946027373
        31           15.500000         0.001505265        79.220763423       -34.447812367       -34.446000947        41.672775538
        32           16.000000         0.001501060        78.999454011       -34.447799862       -34.446001961        41.662670126
        33           16.500000         0.001513639        79.661460336       -34.447713097       -34.446001565        42.076430874
        34           17.000000         0.001509464        79.441760422       -34.447548600       -34.445998185        41.744681299
        35           17.500000         0.001332026        70.103352008       -34.447357814       -34.445993924        43.978120068
        36           18.000000         0.001301610        68.502551078       -34.447200680       -34.445989288        43.568901586
        37           18.500000         0.001201729        63.245929545       -34.447159226       -34.445988274        41.996580474
        38           19.000000         0.001412155        74.320469648       -34.447256756       -34.445990883        41.585634265
        39           19.500000         0.001410787        74.248468314       -34.447452729       -34.445997204        41.832319866
        40           20.000000         0.001638131        86.213361626       -34.447655144       -34.446002802        41.800505543
        41           20.500000         0.001818356        95.698466445       -34.447791489       -34.446006523        41.862512942
        42           21.000000         0.001864972        98.151803053       -34.447805071       -34.446005573        44.378493943
        43           21.500000         0.001822978        95.941705115       -34.447701681       -34.446001894        40.570839898
        44           22.000000         0.001677673        88.294455351       -34.447541104       -34.445996278        41.577078654
        45           22.500000         0.001618611        85.186027648       -34.447408720       -34.445992652        42.032763486
        46           23.000000         0.001594243        83.903578398       -34.447373572       -34.445991392        42.043171515
        47           23.500000         0.001711369        90.067814067       -34.447454560       -34.445994352        42.298828331
        48           24.000000         0.001818794        95.721484855       -34.447617466       -34.445999266        41.511200081
        49           24.500000         0.002048745       107.823624678       -34.447781597       -34.446005612        41.557960704
        50           25.000000         0.002092721       110.138052232       -34.447862222       -34.446009764        41.825137612
        51           25.500000         0.001898039        99.892094174       -34.447792685       -34.446010793        41.792797224
        52           26.000000         0.001750387        92.121313618       -34.447572714       -34.446006655        42.154376548
        53           26.500000         0.001571973        82.731532501       -34.447262136       -34.445999838        41.797358125
        54           27.000000         0.001195964        62.942532962       -34.446993436       -34.445993011        41.763429186
        55           27.500000         0.000980397        51.597418382       -34.446859799       -34.445990737        41.997395455
        56           28.000000         0.001107918        58.308741614       -34.446911737       -34.445993649        49.101444557
        57           28.500000         0.001192481        62.759204295       -34.447103819       -34.446001099        41.876510614
        58           29.000000         0.001415433        74.492983568       -34.447328381       -34.446008181        41.695168225
        59           29.500000         0.001573796        82.827493803       -34.447474176       -34.446012144        35.337824515
        60           30.000000         0.001356671        71.400382688       -34.447490299       -34.446011188        41.818119577
        61           30.500000         0.001259374        66.279744257       -34.447410739       -34.446007579        41.845174007
        62           31.000000         0.001150343        60.541543765       -34.447299031       -34.446002808        41.177812125
        63           31.500000         0.001214674        63.927196461       -34.447217579       -34.445999213        41.703459161
        64           32.000000         0.001398911        73.623418949       -34.447222931       -34.445997859        41.429817874
        65           32.500000         0.001594348        83.909114587       -34.447334928       -34.445999891        42.295041009
        66           33.000000         0.001622352        85.382943515       -34.447524354       -34.446004313        41.813168457
        67           33.500000         0.001881521        99.022754256       -34.447717509       -34.446009916        41.959023931
        68           34.000000         0.001948047       102.523974083       -34.447831341       -34.446014163        34.924510256
        69           34.500000         0.002097145       110.370880137       -34.447802647       -34.446015242        34.820672672
        70           35.000000         0.001894573        99.709701925       -34.447597506       -34.446011934        41.568275132
        71           35.500000         0.001676375        88.226108869       -34.447268414       -34.446004273        41.782351789
        72           36.000000         0.001540393        81.069522096       -34.446918861       -34.445995862        41.941638930
        73           36.500000         0.001170314        61.592600666       -34.446683666       -34.445991791        41.763871051
        74           37.000000         0.001045824        55.040766193       -34.446640722       -34.445993733        41.873486280
        75           37.500000         0.001213317        63.855779938       -34.446756437       -34.446000700        41.672740431
        76           38.000000         0.001312475        69.074391589       -34.446932522       -34.446008527        41.996015495
        77           38.500000         0.001435262        75.536553672       -34.447037831       -34.446012977        41.752841877
        78           39.000000         0.001441400        75.859603308       -34.447011574       -34.446012054        35.131084560
        79           39.500000         0.001347954        70.941609658       -34.446859073       -34.446007101        41.619482776
        80           40.000000         0.001075948        56.626183979       -34.446651242       -34.446000096        41.633154510
        81           40.500000         0.000990452        52.126602485       -34.446503370       -34.445994964        41.790818587
        82           41.000000         0.001079882        56.833228396       -34.446492398       -34.445993073        45.816702822
        83           41.500000         0.001280626        67.398186647       -34.446650530       -34.445995928        59.771946180
        84           42.000000         0.001631999        85.890660298       -34.446935627       -34.446002202        56.638267804
        85           42.500000         0.002016349       106.118637001       -34.447252068       -34.446010379        88.616922027
        86           43.000000         0.002301334       121.117179306       -34.447465053       -34.446016364        61.635839093
        87           43.500000         0.002333393       122.804381582       -34.447478447       -34.446017607        50.998637762
        88           44.000000         0.002084577       109.709417474       -34.447271236       -34.446012357        50.760356590
        89           44.500000         0.001777286        93.536955552       -34.446941585       -34.446003803        55.752023207
        90           45.000000         0.001579671        83.136676286       -34.446608030       -34.445995669        68.275850242
        91           45.500000         0.001234058        64.947373134       -34.446401261       -34.445993071        95.988953385
        92           46.000000         0.001157093        60.896748417       -34.446375185       -34.445996655        77.622705582
        93           46.500000         0.001302580        68.553649261       -34.446471070       -34.446004408        76.131350006
        94           47.000000         0.001331220        70.060932891       -34.446571327       -34.446010932        91.211606580
        95           47.500000         0.001298919        68.360934991       -34.446583652       -34.446013720        78.889394070
        96           48.000000         0.001193341        62.804492824       -34.446473454       -34.446011639        41.012530038
        97           48.500000         0.000954476        50.233234399       -34.446273440       -34.446006499        52.424832848
        98           49.000000         0.000730232        38.431461660       -34.446068232       -34.446000470        50.901544414
        99           49.500000         0.000637368        33.544112151       -34.445944090       -34.445996212        56.101724335
       100           50.000000         0.000760225        40.009983082       -34.445973245       -34.445995270        68.980761041
       101           50.500000         0.001093990        57.575694753       -34.446179350       -34.445998581        57.630273508
       102           51.000000         0.001715175        90.268141624       -34.446511991       -34.446004945        64.932774566
       103           51.500000         0.002063362       108.592894763       -34.446861294       -34.446012378        61.646498452
       104           52.000000         0.002313808       121.773668455       -34.447085660       -34.446016747        62.101750514
       105           52.500000         0.002467081       129.840275897       -34.447117442       -34.446016103        63.241198247
       106           53.000000         0.002273206       119.636783986       -34.446961831       -34.446009893        50.052132384
       107           53.500000         0.002049493       107.862977184       -34.446711752       -34.446001646        53.050707743
       108           54.000000         0.001715451        90.282664903       -34.446516564       -34.445996399        59.289882721
       109           54.500000         0.001624128        85.476403725       -34.446455997       -34.445997398        60.087958455
       110           55.000000         0.001717613        90.396454175       -34.446511485       -34.446003321        56.578746027
       111           55.500000         0.001706901        89.832689029       -34.446591485       -34.446009933        63.580364404
       112           56.000000         0.001699373        89.436460392       -34.446609748       -34.446013873        58.489446356
       113           56.500000         0.001553104        81.738474193       -34.446502024       -34.446013510        67.234849539
       114           57.000000         0.001224639        64.451648699       -34.446289806       -34.446009435        75.262302044
       115           57.500000         0.000878259        46.221996120       -34.446047645       -34.446004228        54.800902120
       116           58.000000         0.000648137        34.110886086       -34.445889760       -34.446000536        76.336727291
       117           58.500000         0.000593198        31.219469544       -34.445856724       -34.445999715        49.329014983
       118           59.000000         0.000613722        32.299635004       -34.445964893       -34.446001909        86.513460167
       119           59.500000         0.000783186        41.218383764       -34.446183033       -34.446006780        74.310773686
       120           60.000000         0.001192874        62.779882165       -34.446444877       -34.446012415        50.173126193
       121           60.500000         0.001398002        73.575606183       -34.446654894       -34.446016405        79.085629635
