       6
 i =        1, E =       -34.4506470734
  H         5.6901181032        7.4604968392        8.0794114887
  H         7.0490371052        7.4981304930        7.3576140623
  O         6.0864090465        7.4999937389        7.1985415682
  H         9.3242196469        8.2621256557        6.9714921834
  H         9.3067077379        6.7382843781        6.9233925258
  O         8.9929769452        7.4879949024        7.4521997874
       6
 i =        2, E =       -34.4508407629
  H         5.6899007384        7.4600016876        8.0920983369
  H         7.0589782929        7.4978188195        7.3678568152
  O         6.0912358757        7.5005247863        7.2095980826
  H         9.3257010526        8.2717395339        6.9712776214
  H         9.3078564750        6.7300503005        6.9232071769
  O         8.9912608517        7.4892715070        7.4460126078
       6
 i =        3, E =       -34.4509449236
  H         5.6954231207        7.4595045127        8.1051935820
  H         7.0646716971        7.4973910329        7.3830875310
  O         6.0951377080        7.4996714766        7.2205862339
  H         9.3290608576        8.2772460946        6.9664990626
  H         9.3108909971        6.7269842962        6.9191620605
  O         8.9892982330        7.4912659545        7.4334323486
       6
 i =        4, E =       -34.4508797911
  H         5.7081499506        7.4589339246        8.1223209123
  H         7.0681937237        7.4968558127        7.4079914391
  O         6.0976951517        7.5003095492        7.2310301943
  H         9.3390297764        8.2880336017        6.9498431525
  H         9.3195807220        6.7236939867        6.9053595320
  O         8.9903474208        7.4972627889        7.3993519543
       6
 i =        5, E =       -34.4511055779
  H         5.7017074305        7.4593407613        8.1115890140
  H         7.0644588275        7.4974725286        7.3928836565
  O         6.0957545969        7.4997110188        7.2243059054
  H         9.3361331409        8.2782407333        6.9533301253
  H         9.3170791814        6.7318194002        6.9086625539
  O         8.9977831493        7.4953323850        7.4199135160
       6
 i =        6, E =       -34.4511723975
  H         5.7002666242        7.4594130447        8.1107915434
  H         7.0649173612        7.4981020396        7.3898918990
  O         6.0965462407        7.4990841690        7.2246251857
  H         9.3401369856        8.2776341023        6.9457453575
  H         9.3205234160        6.7362700772        6.9030626590
  O         8.9967176337        7.4980488909        7.4132647647
       6
 i =        7, E =       -34.4511888009
  H         5.7015688743        7.4597127602        8.1064727507
  H         7.0608826846        7.4998324951        7.3847584981
  O         6.0939262928        7.5008460429        7.2191407999
  H         9.3479509058        8.2796848196        6.9298746999
  H         9.3277424355        6.7418687514        6.8908018904
  O         9.0033813739        7.5028518292        7.4006224943
       6
 i =        8, E =       -34.4512192466
  H         5.6994167462        7.4598302352        8.1032715371
  H         7.0603649376        7.5002461088        7.3798240926
  O         6.0931516589        7.4995617721        7.2167349181
  H         9.3441927494        8.2776248060        6.9353692788
  H         9.3252325874        6.7406246891        6.8946524278
  O         8.9974717628        7.5001719853        7.4065872269
       6
 i =        9, E =       -34.4512218128
  H         5.6989618775        7.4597542068        8.1053053891
  H         7.0622951200        7.5004508433        7.3798373860
  O         6.0943069831        7.5001304054        7.2195729714
  H         9.3427323549        8.2779379196        6.9363393671
  H         9.3246014613        6.7392140090        6.8948976646
  O         9.0005054943        7.4992025613        7.4083133515
       6
 i =       10, E =       -34.4512257209
  H         5.6999779546        7.4598185404        8.1047767693
  H         7.0615547285        7.5008213398        7.3793427022
  O         6.0937279192        7.4998820749        7.2183126351
  H         9.3429966566        8.2782686481        6.9346516443
  H         9.3251031160        6.7399153858        6.8936716680
  O         8.9998763186        7.4998673240        7.4067673336
       6
 i =       11, E =       -34.4512264039
  H         5.7007617516        7.4598609336        8.1049159310
  H         7.0616273564        7.5012088442        7.3786096519
  O         6.0936852741        7.5003555422        7.2181141510
  H         9.3420432208        8.2783471206        6.9342238889
  H         9.3247980924        6.7400884260        6.8932691647
  O         8.9994872491        7.4998692476        7.4068084764
       6
 i =       12, E =       -34.4512264038
  H         5.7007617516        7.4598609336        8.1049159310
  H         7.0616273564        7.5012088442        7.3786096519
  O         6.0936852741        7.5003555422        7.2181141510
  H         9.3420432208        8.2783471206        6.9342238889
  H         9.3247980924        6.7400884260        6.8932691647
  O         8.9994872491        7.4998692476        7.4068084764
