 DBCSR| Multiplication driver                                               BLAS
 DBCSR| Multrec recursion limit                                              512
 DBCSR| Multiplication stack size                                           1000
 DBCSR| Maximum elements for images                                    UNLIMITED
 DBCSR| Multiplicative factor virtual images                                   1
 DBCSR| Multiplication size stacks                                             3


  **** **** ******  **  PROGRAM STARTED AT               2020-05-18 23:09:54.381
 ***** ** ***  *** **   PROGRAM STARTED ON                                 sheep
 **    ****   ******    PROGRAM STARTED BY                                 sim03
 ***** **    ** ** **   PROGRAM PROCESS ID                               3427798
  **** **  *******  **  PROGRAM STARTED IN /auto.eland/home/sim03/Documents/SimP
                                           hys/Summer/2/cp2k/DIMER_PBE_NO_VDW

 CP2K| version string:                                          CP2K version 5.1
 CP2K| source code revision number:                                    svn:18091
 CP2K| cp2kflags: fftw3 max_contr=4                                             
 CP2K| is freely available from                            https://www.cp2k.org/
 CP2K| Program compiled at                         Thu May  9 16:52:28 CEST 2019
 CP2K| Program compiled on                                                  cip0
 CP2K| Program compiled for                                                 icp2
 CP2K| Data directory path          /auto.eland/group/allatom/cp2k/cp2k-5.1/data
 CP2K| Input file name                                water_dimer_pbe_no_vdw.inp

 GLOBAL| Force Environment number                                              1
 GLOBAL| Basis set file name                                      ./BASIS_MOLOPT
 GLOBAL| Potential file name                                    ./GTH_POTENTIALS
 GLOBAL| MM Potential file name                                     MM_POTENTIAL
 GLOBAL| Coordinate file name                                    water-dimer.xyz
 GLOBAL| Method name                                                        CP2K
 GLOBAL| Project name                                                  water-pbe
 GLOBAL| Preferred FFT library                                             FFTW3
 GLOBAL| Preferred diagonalization lib.                                       SL
 GLOBAL| Run type                                                        GEO_OPT
 GLOBAL| All-to-all communication in single precision                          F
 GLOBAL| FFTs using library dependent lengths                                  F
 GLOBAL| Global print level                                               MEDIUM
 GLOBAL| Total number of message passing processes                             1
 GLOBAL| Number of threads for this process                                    1
 GLOBAL| This output is from process                                           0
 GLOBAL| CPU model name :  Intel(R) Core(TM) i7-3930K CPU @ 3.20GHz

 MEMORY| system memory details [Kb]
 MEMORY|                        rank 0           min           max       average
 MEMORY| MemTotal              8112104       8112104       8112104       8112104
 MEMORY| MemFree               2187816       2187816       2187816       2187816
 MEMORY| Buffers                265340        265340        265340        265340
 MEMORY| Cached                3197620       3197620       3197620       3197620
 MEMORY| Slab                   417040        417040        417040        417040
 MEMORY| SReclaimable           331424        331424        331424        331424
 MEMORY| MemLikelyFree         5982200       5982200       5982200       5982200


 *** Fundamental physical constants (SI units) ***

 *** Literature: B. J. Mohr and B. N. Taylor,
 ***             CODATA recommended values of the fundamental physical
 ***             constants: 2006, Web Version 5.1
 ***             http://physics.nist.gov/constants

 Speed of light in vacuum [m/s]                             2.99792458000000E+08
 Magnetic constant or permeability of vacuum [N/A**2]       1.25663706143592E-06
 Electric constant or permittivity of vacuum [F/m]          8.85418781762039E-12
 Planck constant (h) [J*s]                                  6.62606896000000E-34
 Planck constant (h-bar) [J*s]                              1.05457162825177E-34
 Elementary charge [C]                                      1.60217648700000E-19
 Electron mass [kg]                                         9.10938215000000E-31
 Electron g factor [ ]                                     -2.00231930436220E+00
 Proton mass [kg]                                           1.67262163700000E-27
 Fine-structure constant                                    7.29735253760000E-03
 Rydberg constant [1/m]                                     1.09737315685270E+07
 Avogadro constant [1/mol]                                  6.02214179000000E+23
 Boltzmann constant [J/K]                                   1.38065040000000E-23
 Atomic mass unit [kg]                                      1.66053878200000E-27
 Bohr radius [m]                                            5.29177208590000E-11

 *** Conversion factors ***

 [u] -> [a.u.]                                              1.82288848426455E+03
 [Angstrom] -> [Bohr] = [a.u.]                              1.88972613288564E+00
 [a.u.] = [Bohr] -> [Angstrom]                              5.29177208590000E-01
 [a.u.] -> [s]                                              2.41888432650478E-17
 [a.u.] -> [fs]                                             2.41888432650478E-02
 [a.u.] -> [J]                                              4.35974393937059E-18
 [a.u.] -> [N]                                              8.23872205491840E-08
 [a.u.] -> [K]                                              3.15774647902944E+05
 [a.u.] -> [kJ/mol]                                         2.62549961709828E+03
 [a.u.] -> [kcal/mol]                                       6.27509468713739E+02
 [a.u.] -> [Pa]                                             2.94210107994716E+13
 [a.u.] -> [bar]                                            2.94210107994716E+08
 [a.u.] -> [atm]                                            2.90362800883016E+08
 [a.u.] -> [eV]                                             2.72113838565563E+01
 [a.u.] -> [Hz]                                             6.57968392072181E+15
 [a.u.] -> [1/cm] (wave numbers)                            2.19474631370540E+05
 [a.u./Bohr**2] -> [1/cm]                                   5.14048714338585E+03
 

 CELL_TOP| Volume [angstrom^3]:                                         3375.000
 CELL_TOP| Vector a [angstrom    15.000     0.000     0.000    |a| =      15.000
 CELL_TOP| Vector b [angstrom     0.000    15.000     0.000    |b| =      15.000
 CELL_TOP| Vector c [angstrom     0.000     0.000    15.000    |c| =      15.000
 CELL_TOP| Angle (b,c), alpha [degree]:                                   90.000
 CELL_TOP| Angle (a,c), beta  [degree]:                                   90.000
 CELL_TOP| Angle (a,b), gamma [degree]:                                   90.000
 CELL_TOP| Numerically orthorhombic:                                         YES

 GENERATE|  Preliminary Number of Bonds generated:                             0
 GENERATE|  Achieved consistency in connectivity generation.

 CELL| Volume [angstrom^3]:                                             3375.000
 CELL| Vector a [angstrom]:      15.000     0.000     0.000    |a| =      15.000
 CELL| Vector b [angstrom]:       0.000    15.000     0.000    |b| =      15.000
 CELL| Vector c [angstrom]:       0.000     0.000    15.000    |c| =      15.000
 CELL| Angle (b,c), alpha [degree]:                                       90.000
 CELL| Angle (a,c), beta  [degree]:                                       90.000
 CELL| Angle (a,b), gamma [degree]:                                       90.000
 CELL| Numerically orthorhombic:                                             YES

 CELL_REF| Volume [angstrom^3]:                                         3375.000
 CELL_REF| Vector a [angstrom    15.000     0.000     0.000    |a| =      15.000
 CELL_REF| Vector b [angstrom     0.000    15.000     0.000    |b| =      15.000
 CELL_REF| Vector c [angstrom     0.000     0.000    15.000    |c| =      15.000
 CELL_REF| Angle (b,c), alpha [degree]:                                   90.000
 CELL_REF| Angle (a,c), beta  [degree]:                                   90.000
 CELL_REF| Angle (a,b), gamma [degree]:                                   90.000
 CELL_REF| Numerically orthorhombic:                                         YES

 *******************************************************************************
 *******************************************************************************
 **                                                                           **
 **     #####                         ##              ##                      **
 **    ##   ##            ##          ##              ##                      **
 **   ##     ##                       ##            ######                    **
 **   ##     ##  ##   ##  ##   #####  ##  ##   ####   ##    #####    #####    **
 **   ##     ##  ##   ##  ##  ##      ## ##   ##      ##   ##   ##  ##   ##   **
 **   ##  ## ##  ##   ##  ##  ##      ####     ###    ##   ######   ######    **
 **    ##  ###   ##   ##  ##  ##      ## ##      ##   ##   ##       ##        **
 **     #######   #####   ##   #####  ##  ##  ####    ##    #####   ##        **
 **           ##                                                    ##        **
 **                                                                           **
 **                                                ... make the atoms dance   **
 **                                                                           **
 **            Copyright (C) by CP2K developers group (2000 - 2017)           **
 **                                                                           **
 *******************************************************************************

 DFT| Spin restricted Kohn-Sham (RKS) calculation                            RKS
 DFT| Multiplicity                                                             1
 DFT| Number of spin states                                                    1
 DFT| Charge                                                                   0
 DFT| Self-interaction correction (SIC)                                       NO
 DFT| Cutoffs: density                                              1.000000E-10
 DFT|          gradient                                             1.000000E-10
 DFT|          tau                                                  1.000000E-10
 DFT|          cutoff_smoothing_range                               0.000000E+00
 DFT| XC density smoothing                                                  NONE
 DFT| XC derivatives                                                          PW
 FUNCTIONAL| ROUTINE=NEW
 FUNCTIONAL| PBE:
 FUNCTIONAL| J.P.Perdew, K.Burke, M.Ernzerhof, Phys. Rev. Letter, vol. 77, n 18,
 FUNCTIONAL|  pp. 3865-3868, (1996){spin unpolarized}                           

 QS| Method:                                                                 GPW
 QS| Density plane wave grid type                        NON-SPHERICAL FULLSPACE
 QS| Number of grid levels:                                                    4
 QS| Density cutoff [a.u.]:                                                150.0
 QS| Multi grid cutoff [a.u.]: 1) grid level                               150.0
 QS|                           2) grid level                                50.0
 QS|                           3) grid level                                16.7
 QS|                           4) grid level                                 5.6
 QS| Grid level progression factor:                                          3.0
 QS| Relative density cutoff [a.u.]:                                        30.0
 QS| Consistent realspace mapping and integration 
 QS| Interaction thresholds: eps_pgf_orb:                                1.0E-05
 QS|                         eps_filter_matrix:                          0.0E+00
 QS|                         eps_core_charge:                            1.0E-12
 QS|                         eps_rho_gspace:                             1.0E-10
 QS|                         eps_rho_rspace:                             1.0E-10
 QS|                         eps_gvg_rspace:                             1.0E-05
 QS|                         eps_ppl:                                    1.0E-02
 QS|                         eps_ppnl:                                   1.0E-07


 ATOMIC KIND INFORMATION

  1. Atomic kind: H                                     Number of atoms:       4

     Orbital Basis Set                                           DZVP-MOLOPT-GTH

       Number of orbital shell sets:                                           1
       Number of orbital shells:                                               3
       Number of primitive Cartesian functions:                                7
       Number of Cartesian basis functions:                                    5
       Number of spherical basis functions:                                    5
       Norm type:                                                              2

       Normalised Cartesian orbitals:

                        Set   Shell   Orbital            Exponent    Coefficient

                          1       1    2s               11.478000       0.129129
                                                         3.700759       0.177012
                                                         1.446884       0.141285
                                                         0.716815       0.245670
                                                         0.247919       0.094768
                                                         0.066918       0.004062
                                                         0.021708      -0.000053

                          1       2    3s               11.478000      -0.079256
                                                         3.700759      -0.152992
                                                         1.446884       0.015066
                                                         0.716815      -0.331234
                                                         0.247919       0.210690
                                                         0.066918       0.058630
                                                         0.021708      -0.003429

                          1       3    3px              11.478000       0.325290
                                                         3.700759       0.187466
                                                         1.446884       0.443300
                                                         0.716815       0.267738
                                                         0.247919       0.088285
                                                         0.066918       0.019092
                                                         0.021708       0.000629
                          1       3    3py              11.478000       0.325290
                                                         3.700759       0.187466
                                                         1.446884       0.443300
                                                         0.716815       0.267738
                                                         0.247919       0.088285
                                                         0.066918       0.019092
                                                         0.021708       0.000629
                          1       3    3pz              11.478000       0.325290
                                                         3.700759       0.187466
                                                         1.446884       0.443300
                                                         0.716815       0.267738
                                                         0.247919       0.088285
                                                         0.066918       0.019092
                                                         0.021708       0.000629

     GTH Potential information for                                       GTH-PBE

       Description:                       Goedecker-Teter-Hutter pseudopotential
                                           Goedecker et al., PRB 54, 1703 (1996)
                                          Hartwigsen et al., PRB 58, 3641 (1998)
                                                      Krack, TCA 114, 145 (2005)

       Gaussian exponent of the core charge distribution:              12.500000
       Electronic configuration (s p d ...):                                   1

       Parameters of the local part of the GTH pseudopotential:

                          rloc        C1          C2          C3          C4
                        0.200000   -4.178900    0.724463

  2. Atomic kind: O                                     Number of atoms:       2

     Orbital Basis Set                                           DZVP-MOLOPT-GTH

       Number of orbital shell sets:                                           1
       Number of orbital shells:                                               5
       Number of primitive Cartesian functions:                                7
       Number of Cartesian basis functions:                                   14
       Number of spherical basis functions:                                   13
       Norm type:                                                              2

       Normalised Cartesian orbitals:

                        Set   Shell   Orbital            Exponent    Coefficient

                          1       1    2s               12.015955      -0.284499
                                                         5.108150      -0.322498
                                                         2.048398       0.148191
                                                         0.832382       0.295475
                                                         0.352316       0.150829
                                                         0.142977       0.015788
                                                         0.046761      -0.000019

                          1       2    3s               12.015955       0.725622
                                                         5.108150       0.644384
                                                         2.048398      -0.157350
                                                         0.832382      -0.853528
                                                         0.352316       0.146068
                                                         0.142977       0.153978
                                                         0.046761       0.000658

                          1       3    3px              12.015955       1.192141
                                                         5.108150       1.354170
                                                         2.048398       0.897267
                                                         0.832382       0.408839
                                                         0.352316       0.116648
                                                         0.142977       0.022184
                                                         0.046761       0.000308
                          1       3    3py              12.015955       1.192141
                                                         5.108150       1.354170
                                                         2.048398       0.897267
                                                         0.832382       0.408839
                                                         0.352316       0.116648
                                                         0.142977       0.022184
                                                         0.046761       0.000308
                          1       3    3pz              12.015955       1.192141
                                                         5.108150       1.354170
                                                         2.048398       0.897267
                                                         0.832382       0.408839
                                                         0.352316       0.116648
                                                         0.142977       0.022184
                                                         0.046761       0.000308

                          1       4    4px              12.015955      -1.062381
                                                         5.108150      -1.285791
                                                         2.048398      -0.727000
                                                         0.832382      -0.522764
                                                         0.352316       0.182681
                                                         0.142977       0.087560
                                                         0.046761       0.000981
                          1       4    4py              12.015955      -1.062381
                                                         5.108150      -1.285791
                                                         2.048398      -0.727000
                                                         0.832382      -0.522764
                                                         0.352316       0.182681
                                                         0.142977       0.087560
                                                         0.046761       0.000981
                          1       4    4pz              12.015955      -1.062381
                                                         5.108150      -1.285791
                                                         2.048398      -0.727000
                                                         0.832382      -0.522764
                                                         0.352316       0.182681
                                                         0.142977       0.087560
                                                         0.046761       0.000981

                          1       5    4dx2             12.015955       1.125955
                                                         5.108150       1.160468
                                                         2.048398       0.999335
                                                         0.832382       0.756334
                                                         0.352316       0.048604
                                                         0.142977       0.010378
                                                         0.046761      -0.000027
                          1       5    4dxy             12.015955       1.950212
                                                         5.108150       2.009990
                                                         2.048398       1.730899
                                                         0.832382       1.310009
                                                         0.352316       0.084185
                                                         0.142977       0.017974
                                                         0.046761      -0.000046
                          1       5    4dxz             12.015955       1.950212
                                                         5.108150       2.009990
                                                         2.048398       1.730899
                                                         0.832382       1.310009
                                                         0.352316       0.084185
                                                         0.142977       0.017974
                                                         0.046761      -0.000046
                          1       5    4dy2             12.015955       1.125955
                                                         5.108150       1.160468
                                                         2.048398       0.999335
                                                         0.832382       0.756334
                                                         0.352316       0.048604
                                                         0.142977       0.010378
                                                         0.046761      -0.000027
                          1       5    4dyz             12.015955       1.950212
                                                         5.108150       2.009990
                                                         2.048398       1.730899
                                                         0.832382       1.310009
                                                         0.352316       0.084185
                                                         0.142977       0.017974
                                                         0.046761      -0.000046
                          1       5    4dz2             12.015955       1.125955
                                                         5.108150       1.160468
                                                         2.048398       0.999335
                                                         0.832382       0.756334
                                                         0.352316       0.048604
                                                         0.142977       0.010378
                                                         0.046761      -0.000027

     GTH Potential information for                                       GTH-PBE

       Description:                       Goedecker-Teter-Hutter pseudopotential
                                           Goedecker et al., PRB 54, 1703 (1996)
                                          Hartwigsen et al., PRB 58, 3641 (1998)
                                                      Krack, TCA 114, 145 (2005)

       Gaussian exponent of the core charge distribution:               8.360253
       Electronic configuration (s p d ...):                               2   4

       Parameters of the local part of the GTH pseudopotential:

                          rloc        C1          C2          C3          C4
                        0.244554  -16.667215    2.487311

       Parameters of the non-local part of the GTH pseudopotential:

                   l      r(l)      h(i,j,l)

                   0    0.220956   18.337458
                   1    0.211332


 MOLECULE KIND INFORMATION


 All atoms are their own molecule, skipping detailed information


 TOTAL NUMBERS AND MAXIMUM NUMBERS

  Total number of            - Atomic kinds:                                   2
                             - Atoms:                                          6
                             - Shell sets:                                     6
                             - Shells:                                        22
                             - Primitive Cartesian functions:                 42
                             - Cartesian basis functions:                     48
                             - Spherical basis functions:                     46

  Maximum angular momentum of- Orbital basis functions:                        2
                             - Local part of the GTH pseudopotential:          2
                             - Non-local part of the GTH pseudopotential:      0


 MODULE QUICKSTEP:  ATOMIC COORDINATES IN angstrom

  Atom  Kind  Element       X           Y           Z          Z(eff)       Mass

       1     1 H    1    5.682168    7.460916    8.068995      1.00       1.0079
       2     1 H    1    7.044529    7.498716    7.340463      1.00       1.0079
       3     2 O    8    6.087035    7.501426    7.199080      6.00      15.9994
       4     1 H    1    9.317832    8.271832    6.979637      1.00       1.0079
       5     1 H    1    9.299722    6.728168    6.931005      1.00       1.0079
       6     2 O    8    9.017461    7.487949    7.446038      6.00      15.9994




 SCF PARAMETERS         Density guess:                                    ATOMIC
                        --------------------------------------------------------
                        max_scf:                                              50
                        max_scf_history:                                       0
                        max_diis:                                              4
                        --------------------------------------------------------
                        eps_scf:                                        1.00E-06
                        eps_scf_history:                                0.00E+00
                        eps_diis:                                       1.00E-01
                        eps_eigval:                                     1.00E-05
                        --------------------------------------------------------
                        level_shift [a.u.]:                                 0.00
                        --------------------------------------------------------
                        Outer loop SCF in use 
                        No variables optimised in outer loop
                        eps_scf                                         1.00E-06
                        max_scf                                               50
                        No outer loop optimization
                        step_size                                       5.00E-01

 PW_GRID| Information for grid number                                          1
 PW_GRID| Cutoff [a.u.]                                                    150.0
 PW_GRID| spherical cutoff:                                                   NO
 PW_GRID|   Bounds   1            -80      79                Points:         160
 PW_GRID|   Bounds   2            -80      79                Points:         160
 PW_GRID|   Bounds   3            -80      79                Points:         160
 PW_GRID| Volume element (a.u.^3)  0.5560E-02     Volume (a.u.^3)     22775.6292
 PW_GRID| Grid span                                                    FULLSPACE

 PW_GRID| Information for grid number                                          2
 PW_GRID| Cutoff [a.u.]                                                     50.0
 PW_GRID| spherical cutoff:                                                   NO
 PW_GRID|   Bounds   1            -48      47                Points:          96
 PW_GRID|   Bounds   2            -48      47                Points:          96
 PW_GRID|   Bounds   3            -48      47                Points:          96
 PW_GRID| Volume element (a.u.^3)  0.2574E-01     Volume (a.u.^3)     22775.6292
 PW_GRID| Grid span                                                    FULLSPACE

 PW_GRID| Information for grid number                                          3
 PW_GRID| Cutoff [a.u.]                                                     16.7
 PW_GRID| spherical cutoff:                                                   NO
 PW_GRID|   Bounds   1            -27      26                Points:          54
 PW_GRID|   Bounds   2            -27      26                Points:          54
 PW_GRID|   Bounds   3            -27      26                Points:          54
 PW_GRID| Volume element (a.u.^3)  0.1446         Volume (a.u.^3)     22775.6292
 PW_GRID| Grid span                                                    FULLSPACE

 PW_GRID| Information for grid number                                          4
 PW_GRID| Cutoff [a.u.]                                                      5.6
 PW_GRID| spherical cutoff:                                                   NO
 PW_GRID|   Bounds   1            -16      15                Points:          32
 PW_GRID|   Bounds   2            -16      15                Points:          32
 PW_GRID|   Bounds   3            -16      15                Points:          32
 PW_GRID| Volume element (a.u.^3)  0.6951         Volume (a.u.^3)     22775.6292
 PW_GRID| Grid span                                                    FULLSPACE

 POISSON| Solver                                                         WAVELET
 POISSON| Wavelet| Scaling function                                           40
 POISSON| Periodicity                                                       NONE

 RS_GRID| Information for grid number                                          1
 RS_GRID|   Bounds   1            -80      79                Points:         160
 RS_GRID|   Bounds   2            -80      79                Points:         160
 RS_GRID|   Bounds   3            -80      79                Points:         160

 RS_GRID| Information for grid number                                          2
 RS_GRID|   Bounds   1            -48      47                Points:          96
 RS_GRID|   Bounds   2            -48      47                Points:          96
 RS_GRID|   Bounds   3            -48      47                Points:          96

 RS_GRID| Information for grid number                                          3
 RS_GRID|   Bounds   1            -27      26                Points:          54
 RS_GRID|   Bounds   2            -27      26                Points:          54
 RS_GRID|   Bounds   3            -27      26                Points:          54

 RS_GRID| Information for grid number                                          4
 RS_GRID|   Bounds   1            -16      15                Points:          32
 RS_GRID|   Bounds   2            -16      15                Points:          32
 RS_GRID|   Bounds   3            -16      15                Points:          32

 DISTRIBUTION OF THE PARTICLES (ROWS)
              Process row      Number of particles         Number of matrix rows
                        0                        6                            -1
                      Sum                        6                            -1

 DISTRIBUTION OF THE PARTICLES (COLUMNS)
              Process col      Number of particles      Number of matrix columns
                        0                        6                            -1
                      Sum                        6                            -1

 *******************************************************************************
 ***                     STARTING GEOMETRY OPTIMIZATION                      ***
 ***                                   BFGS                                  ***
 *******************************************************************************

 DISTRIBUTION OF THE NEIGHBOR LISTS
              Total number of particle pairs:                                 21
              Total number of matrix elements:                              1277
              Average number of particle pairs:                               21
              Maximum number of particle pairs:                               21
              Average number of matrix element:                             1277
              Maximum number of matrix elements:                            1277


 DISTRIBUTION OF THE OVERLAP MATRIX
              Number  of non-zero blocks:                                     21
              Percentage non-zero blocks:                                 100.00
              Average number of blocks per CPU:                               21
              Maximum number of blocks per CPU:                               21
              Average number of matrix elements per CPU:                    1287
              Maximum number of matrix elements per CPU:                    1287

 Number of electrons:                                                         16
 Number of occupied orbitals:                                                  8
 Number of molecular orbitals:                                                 8

 Number of orbital functions:                                                 46
 Number of independent orbital functions:                                     46

 Extrapolation method: initial_guess

 Atomic guess: The first density matrix is obtained in terms of atomic orbitals
               and electronic configurations assigned to each atomic kind

 Guess for atomic kind: H

 Electronic structure
    Total number of core electrons                                          0.00
    Total number of valence electrons                                       1.00
    Total number of electrons                                               1.00
    Multiplicity                                                   not specified
    S      1.00


 *******************************************************************************
                  Iteration          Convergence                     Energy [au]
 *******************************************************************************
                          1        0.437545E-02                  -0.424159432110
                          2        0.531356E-03                  -0.424178438213
                          3        0.259176E-06                  -0.424178722480

 Energy components [Hartree]           Total Energy ::           -0.424178722480
                                        Band Energy ::           -0.199015229016
                                     Kinetic Energy ::            0.464007633961
                                   Potential Energy ::           -0.888186356441
                                      Virial (-V/T) ::            1.914163240935
                                        Core Energy ::           -0.479160803564
                                          XC Energy ::           -0.244352904054
                                     Coulomb Energy ::            0.299334985138
                       Total Pseudopotential Energy ::           -0.962295316385
                       Local Pseudopotential Energy ::           -0.962295316385
                    Nonlocal Pseudopotential Energy ::            0.000000000000
                                        Confinement ::            0.191268788606

 Orbital energies  State     L     Occupation   Energy[a.u.]          Energy[eV]

                       1     0          1.000      -0.199015           -5.415480


 Total Electron Density at R=0:                                         0.242907

 Guess for atomic kind: O

 Electronic structure
    Total number of core electrons                                          2.00
    Total number of valence electrons                                       6.00
    Total number of electrons                                               8.00
    Multiplicity                                                   not specified
    S   [  2.00] 2.00
    P      4.00


 *******************************************************************************
                  Iteration          Convergence                     Energy [au]
 *******************************************************************************
                          1         1.59807                     -14.860601438858
                          2         2.10429                     -14.911792617606
                          3        0.907503E-01                 -15.655516752884
                          4        0.288621E-02                 -15.656865750737
                          5        0.119119E-02                 -15.656866873291
                          6        0.740468E-03                 -15.656867014560
                          7        0.292240E-04                 -15.656867103307
                          8        0.185245E-06                 -15.656867103452

 Energy components [Hartree]           Total Energy ::          -15.656867103452
                                        Band Energy ::           -3.000198979664
                                     Kinetic Energy ::           11.759972915296
                                   Potential Energy ::          -27.416840018748
                                      Virial (-V/T) ::            2.331369316598
                                        Core Energy ::          -26.140717222249
                                          XC Energy ::           -3.154051243207
                                     Coulomb Energy ::           13.637901362004
                       Total Pseudopotential Energy ::          -37.935784258805
                       Local Pseudopotential Energy ::          -39.218909979177
                    Nonlocal Pseudopotential Energy ::            1.283125720372
                                        Confinement ::            0.350941212594

 Orbital energies  State     L     Occupation   Energy[a.u.]          Energy[eV]

                       1     0          2.000      -0.864472          -23.523467

                       1     1          4.000      -0.317814           -8.648158


 Total Electron Density at R=0:                                         0.000068
 Re-scaling the density matrix to get the right number of electrons
                  # Electrons              Trace(P)               Scaling factor
                           16                16.000                        1.000


 SCF WAVEFUNCTION OPTIMIZATION

  ----------------------------------- OT ---------------------------------------
  Minimizer      : DIIS                : direct inversion
                                         in the iterative subspace
                                         using   7 DIIS vectors
                                         safer DIIS on
  Preconditioner : FULL_ALL            : diagonalization, state selective
  Precond_solver : DEFAULT
  stepsize       :    0.15000000                  energy_gap     :    0.08000000
  eps_taylor     :   0.10000E-15                  max_taylor     :             4
  ----------------------------------- OT ---------------------------------------

  Step     Update method      Time    Convergence         Total energy    Change
  ------------------------------------------------------------------------------
     1 OT DIIS     0.15E+00    7.8     0.27787751       -32.9854145155 -3.30E+01
     2 OT DIIS     0.15E+00    6.7     0.21337400       -33.2397052642 -2.54E-01
     3 OT DIIS     0.15E+00    6.6     0.15940502       -33.9856262827 -7.46E-01
     4 OT DIIS     0.15E+00    6.6     0.08094581       -34.3423999363 -3.57E-01
     5 OT DIIS     0.15E+00    6.4     0.03268564       -34.4320991425 -8.97E-02
     6 OT DIIS     0.15E+00    6.4     0.02035621       -34.4441159613 -1.20E-02
     7 OT DIIS     0.15E+00    6.4     0.00975577       -34.4480908719 -3.97E-03
     8 OT DIIS     0.15E+00    6.4     0.00738807       -34.4492735136 -1.18E-03
     9 OT DIIS     0.15E+00    6.4     0.00377140       -34.4498156094 -5.42E-04
    10 OT DIIS     0.15E+00    6.6     0.00074218       -34.4499293484 -1.14E-04
    11 OT DIIS     0.15E+00    6.6     0.00030790       -34.4499393200 -9.97E-06
    12 OT DIIS     0.15E+00    6.7     0.00021141       -34.4499413798 -2.06E-06
    13 OT DIIS     0.15E+00    6.6     0.00009263       -34.4499425923 -1.21E-06
    14 OT DIIS     0.15E+00    6.7     0.00005788       -34.4499428115 -2.19E-07
    15 OT DIIS     0.15E+00    6.6     0.00005092       -34.4499428781 -6.66E-08
    16 OT DIIS     0.15E+00    6.7     0.00002136       -34.4499429085 -3.04E-08
    17 OT DIIS     0.15E+00    7.0     0.00001759       -34.4499429180 -9.50E-09
    18 OT DIIS     0.15E+00    7.0     0.00001652       -34.4499429196 -1.60E-09
    19 OT DIIS     0.15E+00    6.9     0.00000565       -34.4499429217 -2.07E-09
    20 OT DIIS     0.15E+00    6.9     0.00000277       -34.4499429221 -4.56E-10
    21 OT DIIS     0.15E+00    6.8     0.00000140       -34.4499429223 -1.09E-10
    22 OT DIIS     0.15E+00    6.9     0.00000083       -34.4499429223 -4.58E-11

  *** SCF run converged in    22 steps ***


  Electronic density on regular grids:        -15.9999996384        0.0000003616
  Core density on regular grids:               15.9999999995       -0.0000000005
  Total charge density on r-space grids:        0.0000003611
  Total charge density g-space grids:           0.0000003611

  Overlap energy of the core charge distribution:               0.00000011467697
  Self energy of the core charge distribution:                -88.69430999347530
  Core Hamiltonian energy:                                     25.82220407869756
  Hartree energy:                                              36.89637591178484
  Exchange-correlation energy:                                 -8.47421303398193

  Total energy:                                               -34.44994292229786

  outer SCF iter =    1 RMS gradient =   0.83E-06 energy =        -34.4499429223
  outer SCF loop converged in   1 iterations or   22 steps


 !-----------------------------------------------------------------------------!
                     Mulliken Population Analysis

 #  Atom  Element  Kind  Atomic population                           Net charge
       1     H        1          0.824758                              0.175242
       2     H        1          0.799738                              0.200262
       3     O        2          6.410040                             -0.410040
       4     H        1          0.795499                              0.204501
       5     H        1          0.795362                              0.204638
       6     O        2          6.374603                             -0.374603
 # Total charge                             16.000000                 -0.000000

 !-----------------------------------------------------------------------------!

 !-----------------------------------------------------------------------------!
                           Hirshfeld Charges

  #Atom  Element  Kind  Ref Charge     Population                    Net charge
      1       H      1       1.000          0.443                         0.557
      2       H      1       1.000          0.431                         0.569
      3       O      2       6.000          7.110                        -1.110
      4       H      1       1.000          0.436                         0.564
      5       H      1       1.000          0.436                         0.564
      6       O      2       6.000          7.126                        -1.126

  Total Charge                                                            0.019
 !-----------------------------------------------------------------------------!

 MOMENTS
  The electric/magnetic moments are written to file:
  water_dipole.out


 ENERGY| Total FORCE_EVAL ( QS ) energy (a.u.):              -34.449942922305283


 --------  Informations at step =     0 ------------
  Optimization Method        =                 BFGS
  Total Energy               =       -34.4499429223
  Used time                  =              157.624
 ---------------------------------------------------

 --------------------------
 OPTIMIZATION STEP:      1
 --------------------------

 DISTRIBUTION OF THE NEIGHBOR LISTS
              Total number of particle pairs:                                 21
              Total number of matrix elements:                              1277
              Average number of particle pairs:                               21
              Maximum number of particle pairs:                               21
              Average number of matrix element:                             1277
              Maximum number of matrix elements:                            1277


 DISTRIBUTION OF THE OVERLAP MATRIX
              Number  of non-zero blocks:                                     21
              Percentage non-zero blocks:                                 100.00
              Average number of blocks per CPU:                               21
              Maximum number of blocks per CPU:                               21
              Average number of matrix elements per CPU:                    1287
              Maximum number of matrix elements per CPU:                    1287

 Number of electrons:                                                         16
 Number of occupied orbitals:                                                  8
 Number of molecular orbitals:                                                 8

 Number of orbital functions:                                                 46
 Number of independent orbital functions:                                     46

 Parameters for the always stable predictor-corrector (ASPC) method:

  ASPC order: 0

  B(1) =   1.000000

 Extrapolation method: ASPC


 SCF WAVEFUNCTION OPTIMIZATION

  ----------------------------------- OT ---------------------------------------
  Minimizer      : DIIS                : direct inversion
                                         in the iterative subspace
                                         using   7 DIIS vectors
                                         safer DIIS on
  Preconditioner : FULL_ALL            : diagonalization, state selective
  Precond_solver : DEFAULT
  stepsize       :    0.15000000                  energy_gap     :    0.08000000
  eps_taylor     :   0.10000E-15                  max_taylor     :             4
  ----------------------------------- OT ---------------------------------------

  Step     Update method      Time    Convergence         Total energy    Change
  ------------------------------------------------------------------------------
     1 OT DIIS     0.15E+00    6.2     0.00293810       -34.4502860595 -3.45E+01
     2 OT DIIS     0.15E+00    6.9     0.00129919       -34.4505853862 -2.99E-04
     3 OT DIIS     0.15E+00    6.9     0.00072167       -34.4506345962 -4.92E-05
     4 OT DIIS     0.15E+00    7.0     0.00002413       -34.4506470529 -1.25E-05
     5 OT DIIS     0.15E+00    7.0     0.00001187       -34.4506470706 -1.77E-08
     6 OT DIIS     0.15E+00    6.9     0.00000313       -34.4506470732 -2.59E-09
     7 OT DIIS     0.15E+00    7.0     0.00000020       -34.4506470734 -2.72E-10

  *** SCF run converged in     7 steps ***


  Electronic density on regular grids:        -15.9999995689        0.0000004311
  Core density on regular grids:               15.9999999995       -0.0000000005
  Total charge density on r-space grids:        0.0000004306
  Total charge density g-space grids:           0.0000004306

  Overlap energy of the core charge distribution:               0.00000008505535
  Self energy of the core charge distribution:                -88.69430999347530
  Core Hamiltonian energy:                                     25.77320203838272
  Hartree energy:                                              36.93116969497467
  Exchange-correlation energy:                                 -8.46070889838339

  Total energy:                                               -34.45064707344595

  outer SCF iter =    1 RMS gradient =   0.20E-06 energy =        -34.4506470734
  outer SCF loop converged in   1 iterations or    7 steps


 !-----------------------------------------------------------------------------!
                     Mulliken Population Analysis

 #  Atom  Element  Kind  Atomic population                           Net charge
       1     H        1          0.822591                              0.177409
       2     H        1          0.794346                              0.205654
       3     O        2          6.418984                             -0.418984
       4     H        1          0.790756                              0.209244
       5     H        1          0.790500                              0.209500
       6     O        2          6.382823                             -0.382823
 # Total charge                             16.000000                  0.000000

 !-----------------------------------------------------------------------------!

 !-----------------------------------------------------------------------------!
                           Hirshfeld Charges

  #Atom  Element  Kind  Ref Charge     Population                    Net charge
      1       H      1       1.000          0.443                         0.557
      2       H      1       1.000          0.430                         0.570
      3       O      2       6.000          7.110                        -1.110
      4       H      1       1.000          0.436                         0.564
      5       H      1       1.000          0.436                         0.564
      6       O      2       6.000          7.127                        -1.127

  Total Charge                                                            0.019
 !-----------------------------------------------------------------------------!

 MOMENTS
  The electric/magnetic moments are written to file:
  water_dipole.out


 ENERGY| Total FORCE_EVAL ( QS ) energy (a.u.):              -34.450647073444813


 --------  Informations at step =     1 ------------
  Optimization Method        =                 BFGS
  Total Energy               =       -34.4506470734
  Real energy change         =        -0.0007041511
  Predicted change in energy =        -0.0006344201
  Scaling factor             =         0.0000000000
  Step size                  =         0.0462677647
  Trust radius               =         0.4724315332
  Decrease in energy         =                  YES
  Used time                  =               55.979

  Convergence check :
  Max. step size             =         0.0462677647
  Conv. limit for step size  =         0.0030000000
  Convergence in step size   =                   NO
  RMS step size              =         0.0174637454
  Conv. limit for RMS step   =         0.0015000000
  Convergence in RMS step    =                   NO
  Max. gradient              =         0.0045951076
  Conv. limit for gradients  =         0.0004500000
  Conv. for gradients        =                   NO
  RMS gradient               =         0.0020742220
  Conv. limit for RMS grad.  =         0.0003000000
  Conv. for gradients        =                   NO
 ---------------------------------------------------

 --------------------------
 OPTIMIZATION STEP:      2
 --------------------------

 DISTRIBUTION OF THE NEIGHBOR LISTS
              Total number of particle pairs:                                 21
              Total number of matrix elements:                              1277
              Average number of particle pairs:                               21
              Maximum number of particle pairs:                               21
              Average number of matrix element:                             1277
              Maximum number of matrix elements:                            1277


 DISTRIBUTION OF THE OVERLAP MATRIX
              Number  of non-zero blocks:                                     21
              Percentage non-zero blocks:                                 100.00
              Average number of blocks per CPU:                               21
              Maximum number of blocks per CPU:                               21
              Average number of matrix elements per CPU:                    1287
              Maximum number of matrix elements per CPU:                    1287

 Number of electrons:                                                         16
 Number of occupied orbitals:                                                  8
 Number of molecular orbitals:                                                 8

 Number of orbital functions:                                                 46
 Number of independent orbital functions:                                     46

 Parameters for the always stable predictor-corrector (ASPC) method:

  ASPC order: 0

  B(1) =   2.000000
  B(2) =  -1.000000

 Extrapolation method: ASPC


 SCF WAVEFUNCTION OPTIMIZATION

  ----------------------------------- OT ---------------------------------------
  Minimizer      : DIIS                : direct inversion
                                         in the iterative subspace
                                         using   7 DIIS vectors
                                         safer DIIS on
  Preconditioner : FULL_ALL            : diagonalization, state selective
  Precond_solver : DEFAULT
  stepsize       :    0.15000000                  energy_gap     :    0.08000000
  eps_taylor     :   0.10000E-15                  max_taylor     :             4
  ----------------------------------- OT ---------------------------------------

  Step     Update method      Time    Convergence         Total energy    Change
  ------------------------------------------------------------------------------
     1 OT DIIS     0.15E+00    6.1     0.00275901       -34.4505065633 -3.45E+01
     2 OT DIIS     0.15E+00    7.0     0.00115992       -34.4507858171 -2.79E-04
     3 OT DIIS     0.15E+00    6.9     0.00062695       -34.4508328042 -4.70E-05
     4 OT DIIS     0.15E+00    6.9     0.00002088       -34.4508407483 -7.94E-06
     5 OT DIIS     0.15E+00    6.9     0.00001192       -34.4508407600 -1.17E-08
     6 OT DIIS     0.15E+00    6.9     0.00000242       -34.4508407627 -2.66E-09
     7 OT DIIS     0.15E+00    6.9     0.00000013       -34.4508407629 -1.78E-10

  *** SCF run converged in     7 steps ***


  Electronic density on regular grids:        -15.9999994503        0.0000005497
  Core density on regular grids:               15.9999999994       -0.0000000006
  Total charge density on r-space grids:        0.0000005491
  Total charge density g-space grids:           0.0000005491

  Overlap energy of the core charge distribution:               0.00000007193262
  Self energy of the core charge distribution:                -88.69430999347530
  Core Hamiltonian energy:                                     25.74708580598157
  Hartree energy:                                              36.94927887115307
  Exchange-correlation energy:                                 -8.45289551845360

  Total energy:                                               -34.45084076286164

  outer SCF iter =    1 RMS gradient =   0.13E-06 energy =        -34.4508407629
  outer SCF loop converged in   1 iterations or    7 steps


 !-----------------------------------------------------------------------------!
                     Mulliken Population Analysis

 #  Atom  Element  Kind  Atomic population                           Net charge
       1     H        1          0.821165                              0.178835
       2     H        1          0.791345                              0.208655
       3     O        2          6.424485                             -0.424485
       4     H        1          0.787562                              0.212438
       5     H        1          0.787198                              0.212802
       6     O        2          6.388246                             -0.388246
 # Total charge                             16.000000                  0.000000

 !-----------------------------------------------------------------------------!

 !-----------------------------------------------------------------------------!
                           Hirshfeld Charges

  #Atom  Element  Kind  Ref Charge     Population                    Net charge
      1       H      1       1.000          0.443                         0.557
      2       H      1       1.000          0.428                         0.572
      3       O      2       6.000          7.112                        -1.112
      4       H      1       1.000          0.434                         0.566
      5       H      1       1.000          0.434                         0.566
      6       O      2       6.000          7.130                        -1.130

  Total Charge                                                            0.019
 !-----------------------------------------------------------------------------!

 MOMENTS
  The electric/magnetic moments are written to file:
  water_dipole.out


 ENERGY| Total FORCE_EVAL ( QS ) energy (a.u.):              -34.450840762863606


 --------  Informations at step =     2 ------------
  Optimization Method        =                 BFGS
  Total Energy               =       -34.4508407629
  Real energy change         =        -0.0001936894
  Predicted change in energy =        -0.0001523206
  Scaling factor             =         0.0000000000
  Step size                  =         0.0239746685
  Trust radius               =         0.4724315332
  Decrease in energy         =                  YES
  Used time                  =               55.600

  Convergence check :
  Max. step size             =         0.0239746685
  Conv. limit for step size  =         0.0030000000
  Convergence in step size   =                   NO
  RMS step size              =         0.0119316649
  Conv. limit for RMS step   =         0.0015000000
  Convergence in RMS step    =                   NO
  Max. gradient              =         0.0036245763
  Conv. limit for gradients  =         0.0004500000
  Conv. for gradients        =                   NO
  RMS gradient               =         0.0011675981
  Conv. limit for RMS grad.  =         0.0003000000
  Conv. for gradients        =                   NO
 ---------------------------------------------------

 --------------------------
 OPTIMIZATION STEP:      3
 --------------------------

 DISTRIBUTION OF THE NEIGHBOR LISTS
              Total number of particle pairs:                                 21
              Total number of matrix elements:                              1277
              Average number of particle pairs:                               21
              Maximum number of particle pairs:                               21
              Average number of matrix element:                             1277
              Maximum number of matrix elements:                            1277


 DISTRIBUTION OF THE OVERLAP MATRIX
              Number  of non-zero blocks:                                     21
              Percentage non-zero blocks:                                 100.00
              Average number of blocks per CPU:                               21
              Maximum number of blocks per CPU:                               21
              Average number of matrix elements per CPU:                    1287
              Maximum number of matrix elements per CPU:                    1287

 Number of electrons:                                                         16
 Number of occupied orbitals:                                                  8
 Number of molecular orbitals:                                                 8

 Number of orbital functions:                                                 46
 Number of independent orbital functions:                                     46

 Parameters for the always stable predictor-corrector (ASPC) method:

  ASPC order: 1

  B(1) =   2.500000
  B(2) =  -2.000000
  B(3) =   0.500000

 Extrapolation method: ASPC


 SCF WAVEFUNCTION OPTIMIZATION

  ----------------------------------- OT ---------------------------------------
  Minimizer      : DIIS                : direct inversion
                                         in the iterative subspace
                                         using   7 DIIS vectors
                                         safer DIIS on
  Preconditioner : FULL_ALL            : diagonalization, state selective
  Precond_solver : DEFAULT
  stepsize       :    0.15000000                  energy_gap     :    0.08000000
  eps_taylor     :   0.10000E-15                  max_taylor     :             4
  ----------------------------------- OT ---------------------------------------

  Step     Update method      Time    Convergence         Total energy    Change
  ------------------------------------------------------------------------------
     1 OT DIIS     0.15E+00    6.2     0.00162586       -34.4508260327 -3.45E+01
     2 OT DIIS     0.15E+00    7.0     0.00063308       -34.4509267278 -1.01E-04
     3 OT DIIS     0.15E+00    6.9     0.00012025       -34.4509446663 -1.79E-05
     4 OT DIIS     0.15E+00    6.9     0.00002907       -34.4509449063 -2.40E-07
     5 OT DIIS     0.15E+00    6.9     0.00000336       -34.4509449231 -1.68E-08
     6 OT DIIS     0.15E+00    6.9     0.00000162       -34.4509449235 -3.68E-10
     7 OT DIIS     0.15E+00    6.9     0.00000015       -34.4509449236 -5.12E-11

  *** SCF run converged in     7 steps ***


  Electronic density on regular grids:        -15.9999993141        0.0000006859
  Core density on regular grids:               15.9999999994       -0.0000000006
  Total charge density on r-space grids:        0.0000006853
  Total charge density g-space grids:           0.0000006853

  Overlap energy of the core charge distribution:               0.00000006845078
  Self energy of the core charge distribution:                -88.69430999347530
  Core Hamiltonian energy:                                     25.73998988793869
  Hartree energy:                                              36.95420741911435
  Exchange-correlation energy:                                 -8.45083230558388

  Total energy:                                               -34.45094492355536

  outer SCF iter =    1 RMS gradient =   0.15E-06 energy =        -34.4509449236
  outer SCF loop converged in   1 iterations or    7 steps


 !-----------------------------------------------------------------------------!
                     Mulliken Population Analysis

 #  Atom  Element  Kind  Atomic population                           Net charge
       1     H        1          0.820916                              0.179084
       2     H        1          0.789416                              0.210584
       3     O        2          6.427031                             -0.427031
       4     H        1          0.786951                              0.213049
       5     H        1          0.786445                              0.213555
       6     O        2          6.389241                             -0.389241
 # Total charge                             16.000000                 -0.000000

 !-----------------------------------------------------------------------------!

 !-----------------------------------------------------------------------------!
                           Hirshfeld Charges

  #Atom  Element  Kind  Ref Charge     Population                    Net charge
      1       H      1       1.000          0.443                         0.557
      2       H      1       1.000          0.427                         0.573
      3       O      2       6.000          7.112                        -1.112
      4       H      1       1.000          0.434                         0.566
      5       H      1       1.000          0.433                         0.567
      6       O      2       6.000          7.132                        -1.132

  Total Charge                                                            0.019
 !-----------------------------------------------------------------------------!

 MOMENTS
  The electric/magnetic moments are written to file:
  water_dipole.out


 ENERGY| Total FORCE_EVAL ( QS ) energy (a.u.):              -34.450944923553024


 --------  Informations at step =     3 ------------
  Optimization Method        =                 BFGS
  Total Energy               =       -34.4509449236
  Real energy change         =        -0.0001041607
  Predicted change in energy =        -0.0000736993
  Scaling factor             =         0.0000000000
  Step size                  =         0.0287818817
  Trust radius               =         0.4724315332
  Decrease in energy         =                  YES
  Used time                  =               55.750

  Convergence check :
  Max. step size             =         0.0287818817
  Conv. limit for step size  =         0.0030000000
  Convergence in step size   =                   NO
  RMS step size              =         0.0131302594
  Conv. limit for RMS step   =         0.0015000000
  Convergence in RMS step    =                   NO
  Max. gradient              =         0.0057476815
  Conv. limit for gradients  =         0.0004500000
  Conv. for gradients        =                   NO
  RMS gradient               =         0.0018603544
  Conv. limit for RMS grad.  =         0.0003000000
  Conv. for gradients        =                   NO
 ---------------------------------------------------

 --------------------------
 OPTIMIZATION STEP:      4
 --------------------------

 DISTRIBUTION OF THE NEIGHBOR LISTS
              Total number of particle pairs:                                 21
              Total number of matrix elements:                              1277
              Average number of particle pairs:                               21
              Maximum number of particle pairs:                               21
              Average number of matrix element:                             1277
              Maximum number of matrix elements:                            1277


 DISTRIBUTION OF THE OVERLAP MATRIX
              Number  of non-zero blocks:                                     21
              Percentage non-zero blocks:                                 100.00
              Average number of blocks per CPU:                               21
              Maximum number of blocks per CPU:                               21
              Average number of matrix elements per CPU:                    1287
              Maximum number of matrix elements per CPU:                    1287

 Number of electrons:                                                         16
 Number of occupied orbitals:                                                  8
 Number of molecular orbitals:                                                 8

 Number of orbital functions:                                                 46
 Number of independent orbital functions:                                     46

 Parameters for the always stable predictor-corrector (ASPC) method:

  ASPC order: 2

  B(1) =   2.800000
  B(2) =  -2.800000
  B(3) =   1.200000
  B(4) =  -0.200000

 Extrapolation method: ASPC


 SCF WAVEFUNCTION OPTIMIZATION

  ----------------------------------- OT ---------------------------------------
  Minimizer      : DIIS                : direct inversion
                                         in the iterative subspace
                                         using   7 DIIS vectors
                                         safer DIIS on
  Preconditioner : FULL_ALL            : diagonalization, state selective
  Precond_solver : DEFAULT
  stepsize       :    0.15000000                  energy_gap     :    0.08000000
  eps_taylor     :   0.10000E-15                  max_taylor     :             4
  ----------------------------------- OT ---------------------------------------

  Step     Update method      Time    Convergence         Total energy    Change
  ------------------------------------------------------------------------------
     1 OT DIIS     0.15E+00    6.1     0.00111165       -34.4508254981 -3.45E+01
     2 OT DIIS     0.15E+00    6.9     0.00045690       -34.4508711454 -4.56E-05
     3 OT DIIS     0.15E+00    6.9     0.00025430       -34.4508785955 -7.45E-06
     4 OT DIIS     0.15E+00    6.9     0.00001172       -34.4508797864 -1.19E-06
     5 OT DIIS     0.15E+00    6.9     0.00000404       -34.4508797907 -4.36E-09
     6 OT DIIS     0.15E+00    6.9     0.00000145       -34.4508797911 -3.31E-10
     7 OT DIIS     0.15E+00    6.8     0.00000006       -34.4508797911 -5.16E-11

  *** SCF run converged in     7 steps ***


  Electronic density on regular grids:        -15.9999991119        0.0000008881
  Core density on regular grids:               15.9999999994       -0.0000000006
  Total charge density on r-space grids:        0.0000008875
  Total charge density g-space grids:           0.0000008875

  Overlap energy of the core charge distribution:               0.00000006657457
  Self energy of the core charge distribution:                -88.69430999347530
  Core Hamiltonian energy:                                     25.73533877981479
  Hartree energy:                                              36.95757125037863
  Exchange-correlation energy:                                 -8.44947989439876

  Total energy:                                               -34.45087979110606

  outer SCF iter =    1 RMS gradient =   0.58E-07 energy =        -34.4508797911
  outer SCF loop converged in   1 iterations or    7 steps


 !-----------------------------------------------------------------------------!
                     Mulliken Population Analysis

 #  Atom  Element  Kind  Atomic population                           Net charge
       1     H        1          0.820749                              0.179251
       2     H        1          0.786921                              0.213079
       3     O        2          6.429362                             -0.429362
       4     H        1          0.787148                              0.212852
       5     H        1          0.786430                              0.213570
       6     O        2          6.389390                             -0.389390
 # Total charge                             16.000000                  0.000000

 !-----------------------------------------------------------------------------!

 !-----------------------------------------------------------------------------!
                           Hirshfeld Charges

  #Atom  Element  Kind  Ref Charge     Population                    Net charge
      1       H      1       1.000          0.444                         0.556
      2       H      1       1.000          0.427                         0.573
      3       O      2       6.000          7.111                        -1.111
      4       H      1       1.000          0.433                         0.567
      5       H      1       1.000          0.433                         0.567
      6       O      2       6.000          7.134                        -1.134

  Total Charge                                                            0.019
 !-----------------------------------------------------------------------------!

 MOMENTS
  The electric/magnetic moments are written to file:
  water_dipole.out


 ENERGY| Total FORCE_EVAL ( QS ) energy (a.u.):              -34.450879791107006


 --------  Informations at step =     4 ------------
  Optimization Method        =                 BFGS
  Total Energy               =       -34.4508797911
  Real energy change         =         0.0000651324
  Predicted change in energy =        -0.0001312790
  Scaling factor             =         0.0000000000
  Step size                  =         0.0644026117
  Trust radius               =         0.4724315332
  Decrease in energy         =                   NO
  Used time                  =               55.362

  Convergence check :
  Max. step size             =         0.0644026117
  Conv. limit for step size  =         0.0030000000
  Convergence in step size   =                   NO
  RMS step size              =         0.0250902819
  Conv. limit for RMS step   =         0.0015000000
  Convergence in RMS step    =                   NO
  Max. gradient              =         0.0053853485
  Conv. limit for gradients  =         0.0004500000
  Conv. for gradients        =                   NO
  RMS gradient               =         0.0025165824
  Conv. limit for RMS grad.  =         0.0003000000
  Conv. for gradients        =                   NO
 ---------------------------------------------------

 --------------------------
 OPTIMIZATION STEP:      5
 --------------------------

 DISTRIBUTION OF THE NEIGHBOR LISTS
              Total number of particle pairs:                                 21
              Total number of matrix elements:                              1277
              Average number of particle pairs:                               21
              Maximum number of particle pairs:                               21
              Average number of matrix element:                             1277
              Maximum number of matrix elements:                            1277


 DISTRIBUTION OF THE OVERLAP MATRIX
              Number  of non-zero blocks:                                     21
              Percentage non-zero blocks:                                 100.00
              Average number of blocks per CPU:                               21
              Maximum number of blocks per CPU:                               21
              Average number of matrix elements per CPU:                    1287
              Maximum number of matrix elements per CPU:                    1287

 Number of electrons:                                                         16
 Number of occupied orbitals:                                                  8
 Number of molecular orbitals:                                                 8

 Number of orbital functions:                                                 46
 Number of independent orbital functions:                                     46

 Parameters for the always stable predictor-corrector (ASPC) method:

  ASPC order: 3

  B(1) =   3.000000
  B(2) =  -3.428571
  B(3) =   1.928571
  B(4) =  -0.571429
  B(5) =   0.071429

 Extrapolation method: ASPC


 SCF WAVEFUNCTION OPTIMIZATION

  ----------------------------------- OT ---------------------------------------
  Minimizer      : DIIS                : direct inversion
                                         in the iterative subspace
                                         using   7 DIIS vectors
                                         safer DIIS on
  Preconditioner : FULL_ALL            : diagonalization, state selective
  Precond_solver : DEFAULT
  stepsize       :    0.15000000                  energy_gap     :    0.08000000
  eps_taylor     :   0.10000E-15                  max_taylor     :             4
  ----------------------------------- OT ---------------------------------------

  Step     Update method      Time    Convergence         Total energy    Change
  ------------------------------------------------------------------------------
     1 OT DIIS     0.15E+00    6.2     0.00433341       -34.4502827947 -3.45E+01
     2 OT DIIS     0.15E+00    6.9     0.00181483       -34.4509720603 -6.89E-04
     3 OT DIIS     0.15E+00    6.8     0.00104704       -34.4510846972 -1.13E-04
     4 OT DIIS     0.15E+00    6.9     0.00004284       -34.4511055196 -2.08E-05
     5 OT DIIS     0.15E+00    6.9     0.00002012       -34.4511055695 -4.99E-08
     6 OT DIIS     0.15E+00    6.8     0.00000497       -34.4511055771 -7.64E-09
     7 OT DIIS     0.15E+00    6.9     0.00000031       -34.4511055779 -7.65E-10

  *** SCF run converged in     7 steps ***


  Electronic density on regular grids:        -15.9999991033        0.0000008967
  Core density on regular grids:               15.9999999994       -0.0000000006
  Total charge density on r-space grids:        0.0000008961
  Total charge density g-space grids:           0.0000008961

  Overlap energy of the core charge distribution:               0.00000007240072
  Self energy of the core charge distribution:                -88.69430999347530
  Core Hamiltonian energy:                                     25.74775723571264
  Hartree energy:                                              36.94879918559000
  Exchange-correlation energy:                                 -8.45335207811557

[...]

  #Atom  Element  Kind  Ref Charge     Population                    Net charge
      1       H      1       1.000          0.443                         0.557
      2       H      1       1.000          0.428                         0.572
      3       O      2       6.000          7.111                        -1.111
      4       H      1       1.000          0.434                         0.566
      5       H      1       1.000          0.434                         0.566
      6       O      2       6.000          7.130                        -1.130

  Total Charge                                                            0.019
 !-----------------------------------------------------------------------------!

 MOMENTS
  The electric/magnetic moments are written to file:
  water_dipole.out


 ENERGY| Total FORCE_EVAL ( QS ) energy (a.u.):              -34.451226403865988


 --------  Informations at step =    11 ------------
  Optimization Method        =                 BFGS
  Total Energy               =       -34.4512264039
  Real energy change         =        -0.0000006830
  Predicted change in energy =        -0.0000004963
  Scaling factor             =         0.0000000000
  Step size                  =         0.0018017325
  Trust radius               =         0.4724315332
  Decrease in energy         =                  YES
  Used time                  =               46.869

  Convergence check :
  Max. step size             =         0.0018017325
  Conv. limit for step size  =         0.0030000000
  Convergence in step size   =                  YES
  RMS step size              =         0.0007880054
  Conv. limit for RMS step   =         0.0015000000
  Convergence in RMS step    =                  YES
  Max. gradient              =         0.0002510339
  Conv. limit for gradients  =         0.0004500000
  Conv. in gradients         =                  YES
  RMS gradient               =         0.0000910021
  Conv. limit for RMS grad.  =         0.0003000000
  Conv. in RMS gradients     =                  YES
 ---------------------------------------------------

 *******************************************************************************
 ***                    GEOMETRY OPTIMIZATION COMPLETED                      ***
 *******************************************************************************

                    Reevaluating energy at the minimum

 DISTRIBUTION OF THE NEIGHBOR LISTS
              Total number of particle pairs:                                 21
              Total number of matrix elements:                              1277
              Average number of particle pairs:                               21
              Maximum number of particle pairs:                               21
              Average number of matrix element:                             1277
              Maximum number of matrix elements:                            1277


 DISTRIBUTION OF THE OVERLAP MATRIX
              Number  of non-zero blocks:                                     21
              Percentage non-zero blocks:                                 100.00
              Average number of blocks per CPU:                               21
              Maximum number of blocks per CPU:                               21
              Average number of matrix elements per CPU:                    1287
              Maximum number of matrix elements per CPU:                    1287

 Number of electrons:                                                         16
 Number of occupied orbitals:                                                  8
 Number of molecular orbitals:                                                 8

 Number of orbital functions:                                                 46
 Number of independent orbital functions:                                     46

 Parameters for the always stable predictor-corrector (ASPC) method:

  ASPC order: 3

  B(1) =   3.000000
  B(2) =  -3.428571
  B(3) =   1.928571
  B(4) =  -0.571429
  B(5) =   0.071429

 Extrapolation method: ASPC


 SCF WAVEFUNCTION OPTIMIZATION

  ----------------------------------- OT ---------------------------------------
  Minimizer      : DIIS                : direct inversion
                                         in the iterative subspace
                                         using   7 DIIS vectors
                                         safer DIIS on
  Preconditioner : FULL_ALL            : diagonalization, state selective
  Precond_solver : DEFAULT
  stepsize       :    0.15000000                  energy_gap     :    0.08000000
  eps_taylor     :   0.10000E-15                  max_taylor     :             4
  ----------------------------------- OT ---------------------------------------

  Step     Update method      Time    Convergence         Total energy    Change
  ------------------------------------------------------------------------------
     1 OT DIIS     0.15E+00    5.8     0.00038365       -34.4512197096 -3.45E+01
     2 OT DIIS     0.15E+00    6.5     0.00015178       -34.4512253553 -5.65E-06
     3 OT DIIS     0.15E+00    6.4     0.00002653       -34.4512263918 -1.04E-06
     4 OT DIIS     0.15E+00    6.4     0.00000314       -34.4512264036 -1.18E-08
     5 OT DIIS     0.15E+00    6.4     0.00000069       -34.4512264038 -2.84E-10

  *** SCF run converged in     5 steps ***


  Electronic density on regular grids:        -15.9999990105        0.0000009895
  Core density on regular grids:               15.9999999994       -0.0000000006
  Total charge density on r-space grids:        0.0000009889
  Total charge density g-space grids:           0.0000009889

  Overlap energy of the core charge distribution:               0.00000007335949
  Self energy of the core charge distribution:                -88.69430999347530
  Core Hamiltonian energy:                                     25.74987337846404
  Hartree energy:                                              36.94734763945957
  Exchange-correlation energy:                                 -8.45413750165708

  Total energy:                                               -34.45122640384928

  outer SCF iter =    1 RMS gradient =   0.69E-06 energy =        -34.4512264038
  outer SCF loop converged in   1 iterations or    5 steps


 !-----------------------------------------------------------------------------!
                     Mulliken Population Analysis

 #  Atom  Element  Kind  Atomic population                           Net charge
       1     H        1          0.821217                              0.178783
       2     H        1          0.790061                              0.209939
       3     O        2          6.424702                             -0.424702
       4     H        1          0.788752                              0.211248
       5     H        1          0.788544                              0.211456
       6     O        2          6.386723                             -0.386723
 # Total charge                             16.000000                 -0.000000

 !-----------------------------------------------------------------------------!

 !-----------------------------------------------------------------------------!
                           Hirshfeld Charges

  #Atom  Element  Kind  Ref Charge     Population                    Net charge
      1       H      1       1.000          0.443                         0.557
      2       H      1       1.000          0.428                         0.572
      3       O      2       6.000          7.111                        -1.111
      4       H      1       1.000          0.434                         0.566
      5       H      1       1.000          0.434                         0.566
      6       O      2       6.000          7.130                        -1.130

  Total Charge                                                            0.019
 !-----------------------------------------------------------------------------!

 MOMENTS
  The electric/magnetic moments are written to file:
  water_dipole.out


 ENERGY| Total FORCE_EVAL ( QS ) energy (a.u.):              -34.451226403849283


 -------------------------------------------------------------------------------
 -                                                                             -
 -                                DBCSR STATISTICS                             -
 -                                                                             -
 -------------------------------------------------------------------------------
 COUNTER                                    TOTAL       BLAS       SMM       ACC
 flops     5 x     5 x     8               512000     100.0%      0.0%      0.0%
 flops    13 x     5 x     8               532480     100.0%      0.0%      0.0%
 flops     5 x    13 x     8               532480     100.0%      0.0%      0.0%
 flops     8 x     8 x     8               671744     100.0%      0.0%      0.0%
 flops    13 x    13 x     8              1038336     100.0%      0.0%      0.0%
 flops     5 x     8 x     5              2150400     100.0%      0.0%      0.0%
 flops     8 x     8 x    46              2502400     100.0%      0.0%      0.0%
 flops    13 x     8 x     5              2795520     100.0%      0.0%      0.0%
 flops     5 x     8 x    13              2795520     100.0%      0.0%      0.0%
 flops    46 x     8 x     8              3108864     100.0%      0.0%      0.0%
 flops    13 x     8 x    13              3634176     100.0%      0.0%      0.0%
 flops    46 x     8 x    46              7854592     100.0%      0.0%      0.0%
 flops inhomo. stacks                           0       0.0%      0.0%      0.0%
 flops total                        28.128512E+06     100.0%      0.0%      0.0%
 flops max/rank                     28.128512E+06     100.0%      0.0%      0.0%
 matmuls inhomo. stacks                         0       0.0%      0.0%      0.0%
 matmuls total                              16625     100.0%      0.0%      0.0%
 number of processed stacks                  3697     100.0%      0.0%      0.0%
 average stack size                                     4.5       0.0       0.0
 marketing flops                    29.923328E+06
 -------------------------------------------------------------------------------
 # multiplications                           2318
 max memory usage/rank               1.045856E+09
 # max total images/rank                        1
 # max 3D layers                                1
 # MPI messages exchanged                       0
 MPI messages size (bytes):
  total size                         0.000000E+00
  min size                           0.000000E+00
  max size                           0.000000E+00
  average size                       0.000000E+00
 MPI breakdown and total messages size (bytes):
             size <=      128                   0                        0
       128 < size <=     8192                   0                        0
      8192 < size <=    32768                   0                        0
     32768 < size <=   131072                   0                        0
    131072 < size <=  4194304                   0                        0
   4194304 < size <= 16777216                   0                        0
  16777216 < size                               0                        0
 -------------------------------------------------------------------------------

 MEMORY| Estimated peak process memory [MiB]                                 998

 -------------------------------------------------------------------------------
 ----                             MULTIGRID INFO                            ----
 -------------------------------------------------------------------------------
 count for grid        1:          15093          cutoff [a.u.]          150.00
 count for grid        2:           5222          cutoff [a.u.]           50.00
 count for grid        3:           2955          cutoff [a.u.]           16.67
 count for grid        4:           1539          cutoff [a.u.]            5.56
 total gridlevel count  :          24809

 -------------------------------------------------------------------------------
 -                                                                             -
 -                           R E F E R E N C E S                               -
 -                                                                             -
 -------------------------------------------------------------------------------
 
 CP2K version 5.1, the CP2K developers group (2017).
 CP2K is freely available from https://www.cp2k.org/ .

 Schuett, Ole; Messmer, Peter; Hutter, Juerg; VandeVondele, Joost. 
 Electronic Structure Calculations on Graphics Processing Units, John Wiley & Sons, Ltd, 173-190 (2016). 
 GPU-Accelerated Sparse Matrix-Matrix Multiplication for Linear Scaling Density Functional Theory.
 http://dx.doi.org/10.1002/9781118670712.ch8


 Borstnik, U; VandeVondele, J; Weber, V; Hutter, J. 
 PARALLEL COMPUTING, 40 (5-6), 47-58 (2014). 
 Sparse matrix multiplication: The distributed block-compressed sparse
 row library.
 http://dx.doi.org/10.1016/j.parco.2014.03.012


 Hutter, J; Iannuzzi, M; Schiffmann, F; VandeVondele, J. 
 WILEY INTERDISCIPLINARY REVIEWS-COMPUTATIONAL MOLECULAR SCIENCE, 4 (1), 15-25 (2014). 
 CP2K: atomistic simulations of condensed matter systems.
 http://dx.doi.org/10.1002/wcms.1159


 VandeVondele, J; Hutter, J. 
 JOURNAL OF CHEMICAL PHYSICS, 127 (11), 114105 (2007). 
 Gaussian basis sets for accurate calculations on molecular systems in
 gas and condensed phases.
 http://dx.doi.org/10.1063/1.2770708


 Genovese, L; Deutsch, T; Goedecker, S. 
 JOURNAL OF CHEMICAL PHYSICS, 127 (5), 054704 (2007). 
 Efficient and accurate three-dimensional Poisson solver for surface
 problems.
 http://dx.doi.org/10.1063/1.2754685


 Genovese, L; Deutsch, T; Neelov, A; Goedecker, S; Beylkin, G. 
 JOURNAL OF CHEMICAL PHYSICS, 125 (7), 074105 (2006). 
 Efficient solution of Poisson's equation with free boundary conditions.
 http://dx.doi.org/10.1063/1.2335442


 Krack, M. 
 THEORETICAL CHEMISTRY ACCOUNTS, 114 (1-3), 145-152 (2005). 
 Pseudopotentials for H to Kr optimized for gradient-corrected
 exchange-correlation functionals.
 http://dx.doi.org/10.1007/s00214-005-0655-y


 VandeVondele, J; Krack, M; Mohamed, F; Parrinello, M; Chassaing, T;
 Hutter, J. COMPUTER PHYSICS COMMUNICATIONS, 167 (2), 103-128 (2005). 
 QUICKSTEP: Fast and accurate density functional calculations using a
 mixed Gaussian and plane waves approach.
 http://dx.doi.org/10.1016/j.cpc.2004.12.014


 Frigo, M; Johnson, SG. 
 PROCEEDINGS OF THE IEEE, 93 (2), 216-231 (2005). 
 The design and implementation of FFTW3.
 http://dx.doi.org/10.1109/JPROC.2004.840301


 Kolafa, J. 
 JOURNAL OF COMPUTATIONAL CHEMISTRY, 25 (3), 335-342 (2004). 
 Time-reversible always stable predictor-corrector method for molecular dynamics of polarizable molecules.
 http://dx.doi.org/10.1002/jcc.10385


 VandeVondele, J; Hutter, J. 
 JOURNAL OF CHEMICAL PHYSICS, 118 (10), 4365-4369 (2003). 
 An efficient orbital transformation method for electronic structure
 calculations.
 http://dx.doi.org/10.1063/1.1543154


 Hartwigsen, C; Goedecker, S; Hutter, J. 
 PHYSICAL REVIEW B, 58 (7), 3641-3662 (1998). 
 Relativistic separable dual-space Gaussian pseudopotentials from H to Rn.
 http://dx.doi.org/10.1103/PhysRevB.58.3641


 Lippert, G; Hutter, J; Parrinello, M. 
 MOLECULAR PHYSICS, 92 (3), 477-487 (1997). 
 A hybrid Gaussian and plane wave density functional scheme.
 http://dx.doi.org/10.1080/002689797170220


 Perdew, JP; Burke, K; Ernzerhof, M. 
 PHYSICAL REVIEW LETTERS, 77 (18), 3865-3868 (1996). 
 Generalized gradient approximation made simple.
 http://dx.doi.org/10.1103/PhysRevLett.77.3865


 Goedecker, S; Teter, M; Hutter, J. 
 PHYSICAL REVIEW B, 54 (3), 1703-1710 (1996). 
 Separable dual-space Gaussian pseudopotentials.
 http://dx.doi.org/10.1103/PhysRevB.54.1703


 -------------------------------------------------------------------------------
 -                                                                             -
 -                                T I M I N G                                  -
 -                                                                             -
 -------------------------------------------------------------------------------
 SUBROUTINE                       CALLS  ASD         SELF TIME        TOTAL TIME
                                MAXIMUM       AVERAGE  MAXIMUM  AVERAGE  MAXIMUM
 CP2K                                 1  1.0    0.062    0.062  802.697  802.697
 cp_geo_opt                           1  2.0    0.000    0.000  801.168  801.168
 geoopt_bfgs                          1  3.0    0.002    0.002  801.168  801.168
 cp_eval_at                          13  4.0    0.001    0.001  795.777  795.777
 qs_forces                           12  5.0    0.001    0.001  758.725  758.725
 qs_energies                         13  5.9    0.001    0.001  723.039  723.039
 scf_env_do_scf                      13  6.9    0.001    0.001  706.394  706.394
 rebuild_ks_matrix                  115  9.6    0.000    0.000  694.476  694.476
 qs_ks_build_kohn_sham_matrix       115 10.6    0.016    0.016  694.475  694.475
 scf_env_do_scf_inner_loop          103  8.0    2.960    2.960  625.970  625.970
 qs_ks_update_qs_env                116  8.9    0.001    0.001  621.835  621.835
 pw_transfer                       2203 13.4    0.152    0.152  449.591  449.591
 fft_wrap_pw1pw2                   2203 14.4    0.025    0.025  449.439  449.439
 fft_wrap_pw1pw2_150               1510 15.4   31.692   31.692  435.922  435.922
 qs_vxc_create                      115 11.6    0.002    0.002  429.762  429.762
 xc_vxc_pw_create                   115 12.6    5.439    5.439  429.760  429.760
 fft3d_s                           2204 16.4  292.374  292.374  292.383  292.383
 xc_rho_set_and_dset_create         115 13.6    3.120    3.120  277.250  277.250
 pw_poisson_solve                   115 11.6   15.582   15.582  179.091  179.091
 xc_functional_eval                 115 14.6    0.001    0.001  165.937  165.937
 pbe_lda_eval                       115 15.6  165.935  165.935  165.935  165.935
 ps_wavelet_solve                   115 12.6   86.558   86.558   88.842   88.842
 qs_rho_update_rho                  116  9.1    0.001    0.001   85.097   85.097
 calculate_rho_elec                 116 10.1    6.271    6.271   85.096   85.096
 init_scf_loop                       13  7.9    0.000    0.000   80.418   80.418
 density_rs2pw                      116 11.1    0.009    0.009   78.250   78.250
 qs_ks_update_qs_env_forces          12  6.0    0.000    0.000   72.645   72.645
 pw_scatter_s                      1151 16.8   67.231   67.231   67.231   67.231
 pw_gather_s                       1052 15.9   57.547   57.547   57.547   57.547
 sum_up_and_integrate               115 11.6    0.777    0.777   50.295   50.295
 integrate_v_rspace                 115 12.6    5.758    5.758   49.518   49.518
 potential_pw2rs                    115 13.6    0.126    0.126   43.743   43.743
 pw_derive                          690 14.1   16.864   16.864   16.864   16.864
 -------------------------------------------------------------------------------

 The number of warnings for this run is : 0
 
 -------------------------------------------------------------------------------
  **** **** ******  **  PROGRAM ENDED AT                 2020-05-18 23:23:17.143
 ***** ** ***  *** **   PROGRAM RAN ON                                     sheep
 **    ****   ******    PROGRAM RAN BY                                     sim03
 ***** **    ** ** **   PROGRAM PROCESS ID                               3427798
  **** **  *******  **  PROGRAM STOPPED IN /auto.eland/home/sim03/Documents/SimP
                                           hys/Summer/2/cp2k/DIMER_PBE_NO_VDW
