#     Step Nr.          Time[fs]        Kin.[a.u.]          Temp[K]            Pot.[a.u.]        Cons Qty[a.u.]        UsedTime[s]
         0            0.000000         0.005700268       300.000000000       -34.447892042       -34.442191774         0.000000000
         1            0.500000         0.005667590       298.280219661       -34.447974892       -34.442189883       203.664510157
         2            1.000000         0.005386819       283.503492445       -34.447898091       -34.442183965        42.200929328
         3            1.500000         0.004835368       254.481098401       -34.447762903       -34.442179533        48.858748192
         4            2.000000         0.004560829       240.032373129       -34.447648715       -34.442178525        41.731394509
         5            2.500000         0.004570074       240.518929688       -34.447580734       -34.442181252        41.825065487
         6            3.000000         0.004870031       256.305386639       -34.447520720       -34.442184724        41.831417377
         7            3.500000         0.004194710       220.763842538       -34.447417961       -34.442186962        48.970583104
         8            4.000000         0.003780562       198.967599936       -34.447260911       -34.442186881        41.752348365
         9            4.500000         0.003706128       195.050196902       -34.447040584       -34.442185386        41.831420462
        10            5.000000         0.003582162       188.525970883       -34.446802960       -34.442183740        41.854426060
        11            5.500000         0.003470219       182.634544803       -34.446567843       -34.442181262        42.201048144
        12            6.000000         0.003151634       165.867708961       -34.446367776       -34.442178467        42.203293052
        13            6.500000         0.003491924       183.776832814       -34.446253222       -34.442176716        41.742185850
        14            7.000000         0.003872534       203.807993775       -34.446234145       -34.442175979        42.018007876
        15            7.500000         0.003912174       205.894203931       -34.446312781       -34.442177721        41.728917474
        16            8.000000         0.004306877       226.667084971       -34.446462004       -34.442182087        41.805178454
        17            8.500000         0.004244786       223.399289612       -34.446613201       -34.442185431        42.093705898
        18            9.000000         0.004258168       224.103608376       -34.446724569       -34.442186257        42.194738667
        19            9.500000         0.004291133       225.838486079       -34.446800843       -34.442185110        41.836049746
        20           10.000000         0.004413220       232.263822629       -34.446856556       -34.442182873        41.512958061
        21           10.500000         0.004546585       239.282686831       -34.446920114       -34.442182096        41.996616421
        22           11.000000         0.004905263       258.159626666       -34.446997673       -34.442184218        42.149312595
        23           11.500000         0.004581445       241.117353579       -34.447063278       -34.442186570        41.781433954
        24           12.000000         0.004782398       251.693349193       -34.447087073       -34.442187854        41.668056490
        25           12.500000         0.004766588       250.861265644       -34.447053494       -34.442187935        42.341219190
        26           13.000000         0.004779099       251.519706626       -34.446961376       -34.442186048        41.534033069
        27           13.500000         0.004394182       231.261887058       -34.446854210       -34.442184761        41.776859126
        28           14.000000         0.004333645       228.075884197       -34.446749884       -34.442184048        41.835889128
        29           14.500000         0.003710546       195.282730984       -34.446666272       -34.442184316        41.882797045
        30           15.000000         0.003536344       186.114618377       -34.446620705       -34.442184879        41.799056052
        31           15.500000         0.003650855       192.141263871       -34.446603469       -34.442186081        42.028545275
        32           16.000000         0.003681151       193.735674815       -34.446600348       -34.442187532        43.119073092
        33           16.500000         0.003938151       207.261400292       -34.446579522       -34.442189093        46.407401542
        34           17.000000         0.004292177       225.893439376       -34.446488145       -34.442189220        41.607848185
        35           17.500000         0.004161231       219.001893582       -34.446323705       -34.442185171        42.104966309
        36           18.000000         0.004336871       228.245651984       -34.446126116       -34.442177724        42.188336642
        37           18.500000         0.004041556       212.703498230       -34.446018277       -34.442172071        48.452657836
        38           19.000000         0.004466827       235.085100632       -34.446091325       -34.442172485        41.985444857
        39           19.500000         0.004128930       217.301911581       -34.446339386       -34.442180069        44.487586342
        40           20.000000         0.004509331       237.322057343       -34.446643012       -34.442190130        44.180678977
        41           20.500000         0.004871835       256.400323519       -34.446871288       -34.442197879        42.203973151
        42           21.000000         0.004992700       262.761323027       -34.446896017       -34.442198468        49.110052486
        43           21.500000         0.004960862       261.085749233       -34.446690948       -34.442192552        42.094757744
        44           22.000000         0.004639081       244.150693700       -34.446328329       -34.442183427        41.880485406
        45           22.500000         0.004469164       235.208099510       -34.445946442       -34.442175661        41.617579997
        46           23.000000         0.004233056       222.781956830       -34.445675830       -34.442171456        41.950765436
        47           23.500000         0.004249262       223.634892118       -34.445579858       -34.442172151        42.134715524
        48           24.000000         0.004187161       220.366525598       -34.445645201       -34.442177537        41.807198554
        49           24.500000         0.004524545       238.122773238       -34.445789830       -34.442185264        41.707758754
        50           25.000000         0.004550764       239.502635274       -34.445891885       -34.442193117        41.908166464
        51           25.500000         0.004172253       219.581955879       -34.445825628       -34.442197498        41.835718732
        52           26.000000         0.004071997       214.305594474       -34.445537444       -34.442194649        41.946648045
        53           26.500000         0.003956192       208.210862899       -34.445065224       -34.442184371        41.755329730
        54           27.000000         0.003204241       168.636367387       -34.444604698       -34.442171370        41.953244576
        55           27.500000         0.002705854       142.406685723       -34.444337193       -34.442163200        41.565923414
        56           28.000000         0.002998913       157.830090274       -34.444406276       -34.442165533        48.554045640
        57           28.500000         0.003077979       161.991300933       -34.444775841       -34.442177699        41.666494415
        58           29.000000         0.003574037       188.098384974       -34.445263117       -34.442191949        41.779972166
        59           29.500000         0.004000348       210.534729983       -34.445644992       -34.442201003        34.407216292
        60           30.000000         0.003504666       184.447446642       -34.445789328       -34.442201364        41.904038756
        61           30.500000         0.003401748       179.030976814       -34.445730797       -34.442196203        41.820940858
        62           31.000000         0.003242495       170.649614201       -34.445565618       -34.442188438        41.770748748
        63           31.500000         0.003488216       183.581707572       -34.445387217       -34.442181461        41.788419288
        64           32.000000         0.003918730       206.239259688       -34.445291593       -34.442177066        42.065895759
        65           32.500000         0.004210111       221.574361226       -34.445341683       -34.442177401        41.785753825
        66           33.000000         0.003971190       209.000162853       -34.445533142       -34.442181946        41.768718094
        67           33.500000         0.004419753       232.607670153       -34.445786241       -34.442190281        41.889565582
        68           34.000000         0.004498524       236.753287933       -34.445975862       -34.442199111        41.422773507
        69           34.500000         0.004970381       261.586741567       -34.445967580       -34.442205168        41.751065424
        70           35.000000         0.004653742       244.922264345       -34.445639407       -34.442202298        41.751165545
        71           35.500000         0.004344028       228.622304699       -34.445027137       -34.442188949        41.843027405
        72           36.000000         0.004231511       222.700638515       -34.444310608       -34.442169527        42.011894222
        73           36.500000         0.003332249       175.373275755       -34.443798339       -34.442156115        41.870986109
        74           37.000000         0.003019570       158.917288325       -34.443718533       -34.442157449        42.043193153
        75           37.500000         0.003500288       184.217048422       -34.444040279       -34.442172512        41.705201522
        76           38.000000         0.003796671       199.815389559       -34.444558015       -34.442191497        41.923432012
        77           38.500000         0.004243580       223.335823856       -34.444950509       -34.442202988        41.684805661
        78           39.000000         0.004445696       233.972999068       -34.445058126       -34.442202626        34.891404155
        79           39.500000         0.004426742       232.975473181       -34.444864558       -34.442192828        46.380030764
        80           40.000000         0.003832404       201.695986539       -34.444501208       -34.442178595        61.295786442
        81           40.500000         0.003715790       195.558730869       -34.444197270       -34.442167342        89.770205197
        82           41.000000         0.003962331       208.533963820       -34.444118287       -34.442161993        64.951702894
        83           41.500000         0.004334090       228.099266019       -34.444348169       -34.442165204        71.623467147
        84           42.000000         0.005033613       264.914576770       -34.444835146       -34.442176204        62.100616975
        85           42.500000         0.005824540       306.540347901       -34.445410055       -34.442192591        64.176321562
        86           43.000000         0.006431547       338.486581098       -34.445799102       -34.442207276        70.617702825
        87           43.500000         0.006459002       339.931539365       -34.445771065       -34.442212804        90.920147011
        88           44.000000         0.005794429       304.955645471       -34.445227867       -34.442203689        62.054639806
        89           44.500000         0.004992038       262.726520868       -34.444361525       -34.442183561        49.393758130
        90           45.000000         0.004464235       234.948731036       -34.443437122       -34.442161346        53.407212918
        91           45.500000         0.003442916       181.197576173       -34.442812323       -34.442150733        64.322961503
        92           46.000000         0.003171692       166.923319428       -34.442680368       -34.442156991        97.653059911
        93           46.500000         0.003574462       188.120720510       -34.442933034       -34.442175122        52.385386997
        94           47.000000         0.003732412       196.433492533       -34.443289462       -34.442191812        53.259636326
        95           47.500000         0.003827172       201.420656042       -34.443514251       -34.442199746        58.591848415
        96           48.000000         0.003819543       201.019165442       -34.443489352       -34.442196741        73.695191027
        97           48.500000         0.003464091       182.312001532       -34.443267511       -34.442186842        63.829088622
        98           49.000000         0.003121184       164.265148925       -34.443006053       -34.442174910        94.664046939
        99           49.500000         0.003084447       162.331718313       -34.442881595       -34.442166000        57.563740398
       100           50.000000         0.003579072       188.363354745       -34.443039090       -34.442162987        60.588389118
       101           50.500000         0.004531504       238.489008567       -34.443544969       -34.442168051        79.918548445
       102           51.000000         0.006276625       330.333164326       -34.444318431       -34.442180117        94.277628808
       103           51.500000         0.007103992       373.876764972       -34.445151248       -34.442197138        81.222695272
       104           52.000000         0.007751904       407.975800919       -34.445724251       -34.442210826       100.454460050
       105           52.500000         0.008224540       432.850223351       -34.445827151       -34.442214947        65.667337792
       106           53.000000         0.007650240       402.625329136       -34.445389141       -34.442203666        88.657829116
       107           53.500000         0.006913276       363.839561239       -34.444580291       -34.442181333        53.115725194
       108           54.000000         0.005698048       299.883189322       -34.443809021       -34.442161098        65.283241930
       109           54.500000         0.005168879       272.033498780       -34.443374787       -34.442155619        71.345553314
       110           55.000000         0.005259146       276.784172047       -34.443333633       -34.442166835        92.256324957
       111           55.500000         0.005186921       272.983019589       -34.443535523       -34.442184875        46.066183002
       112           56.000000         0.005287198       278.260489808       -34.443721282       -34.442199966        79.833260884
       113           56.500000         0.005093374       268.059717149       -34.443656340       -34.442202941       101.984969744
       114           57.000000         0.004369875       229.982640308       -34.443315371       -34.442195417        60.540776240
       115           57.500000         0.003520944       185.304164964       -34.442836664       -34.442183445        57.157459518
       116           58.000000         0.002897682       152.502426495       -34.442472500       -34.442173153        69.993900248
       117           58.500000         0.002687437       141.437425708       -34.442353315       -34.442167976        63.193753298
       118           59.000000         0.002562034       134.837568292       -34.442560485       -34.442170870        57.925724855
       119           59.500000         0.002888309       152.009139005       -34.443057351       -34.442180369        62.899019799
       120           60.000000         0.004015427       211.328336163       -34.443710589       -34.442194626        56.733976453
       121           60.500000         0.004559222       239.947784669       -34.444281347       -34.442208643       101.489117834
       122           61.000000         0.004941881       260.086805590       -34.444571984       -34.442215025        69.767287667
       123           61.500000         0.004822355       253.796228721       -34.444461882       -34.442209652        73.260743401
       124           62.000000         0.004143337       218.060119182       -34.444052609       -34.442195727        85.718123317
       125           62.500000         0.003322879       174.880172536       -34.443591060       -34.442181171        79.645246235
       126           63.000000         0.002923235       153.847261358       -34.443311911       -34.442175870        70.445754655
       127           63.500000         0.003233197       170.160293126       -34.443286353       -34.442182893        58.846269942
       128           64.000000         0.003370506       177.386719557       -34.443415323       -34.442196306        51.717768783
       129           64.500000         0.003714477       195.489596606       -34.443485000       -34.442207434        78.774405966
       130           65.000000         0.003223538       169.651911278       -34.443317067       -34.442210468        97.791351720
       131           65.500000         0.003424700       180.238925689       -34.442854968       -34.442203750        63.299134372
       132           66.000000         0.002732294       143.798212309       -34.442130557       -34.442190332        87.299432676
       133           66.500000         0.002128324       112.011819531       -34.441395944       -34.442176243        61.980022570
       134           67.000000         0.001740776        91.615481031       -34.440845105       -34.442166185        82.081746551
       135           67.500000         0.001662780        87.510638416       -34.440593639       -34.442161801        45.666008606
       136           68.000000         0.001954457       102.861333134       -34.440743341       -34.442165588        87.892440756
       137           68.500000         0.002343176       123.319258315       -34.441246812       -34.442176471        58.323013972
       138           69.000000         0.003142804       165.402947003       -34.441926171       -34.442191735        60.266062750
       139           69.500000         0.003683264       193.846897113       -34.442532052       -34.442204909        54.712138445
       140           70.000000         0.003881233       204.265836868       -34.442884540       -34.442210790        74.101341560
       141           70.500000         0.004172188       219.578536041       -34.442926028       -34.442205696        94.071948816
       142           71.000000         0.003954963       208.146166012       -34.442718242       -34.442191535        45.476735633
       143           71.500000         0.003973149       209.103292905       -34.442465869       -34.442175773        81.013668178
       144           72.000000         0.004390404       231.063058518       -34.442407567       -34.442170149        55.435593080
       145           72.500000         0.004869731       256.289596188       -34.442632317       -34.442178263        63.582724749
       146           73.000000         0.005060242       266.316048764       -34.443007370       -34.442195475        66.643852440
       147           73.500000         0.004890834       257.400223152       -34.443270246       -34.442209765       103.278702865
       148           74.000000         0.004627995       243.567224270       -34.443221366       -34.442215070        54.946330663
       149           74.500000         0.004295692       226.078451459       -34.442812675       -34.442209966        63.417031558
       150           75.000000         0.003470805       182.665353446       -34.442122845       -34.442198709        74.263194236
       151           75.500000         0.002700143       142.106115662       -34.441338650       -34.442185209        61.217766959
       152           76.000000         0.002108345       110.960309147       -34.440672765       -34.442175245        81.582945388
       153           76.500000         0.001841072        96.893974079       -34.440232934       -34.442170138        95.667080479
       154           77.000000         0.002230169       117.371803240       -34.440117496       -34.442173154       120.161008848
       155           77.500000         0.002683302       141.219771544       -34.440290025       -34.442182973        65.467783530
       156           78.000000         0.003070185       161.581099567       -34.440586630       -34.442197071        88.544643858
       157           78.500000         0.003312185       174.317336602       -34.440768873       -34.442205634       105.115582001
       158           79.000000         0.003421896       180.091352011       -34.440728046       -34.442204567        76.609125224
       159           79.500000         0.003109493       163.649858712       -34.440472924       -34.442191186        66.743546861
       160           80.000000         0.002854098       150.208606122       -34.440189842       -34.442173269        72.533037868
       161           80.500000         0.002734263       143.901833739       -34.440178082       -34.442164206        60.505428130
       162           81.000000         0.003056534       160.862678331       -34.440578450       -34.442171310        61.461932436
       163           81.500000         0.003517798       185.138561976       -34.441257163       -34.442188739        97.500986580
       164           82.000000         0.003536635       186.129931259       -34.441958563       -34.442206498        70.628110638
       165           82.500000         0.003948909       207.827563848       -34.442460225       -34.442216426        95.758619109
       166           83.000000         0.004119339       216.797145706       -34.442636950       -34.442217085       123.063340410
       167           83.500000         0.004265175       224.472360770       -34.442460439       -34.442209160        58.854974355
       168           84.000000         0.003918362       206.219893649       -34.442028864       -34.442197688        67.911266909
       169           84.500000         0.003923179       206.473391441       -34.441519073       -34.442186163        89.063225480
       170           85.000000         0.003486716       183.502753261       -34.441065974       -34.442178135        61.931703690
       171           85.500000         0.003091060       162.679729515       -34.440829263       -34.442175801        63.837709758
       172           86.000000         0.002742789       144.350536550       -34.440850357       -34.442180924        56.542153428
       173           86.500000         0.003045040       160.257732356       -34.441057798       -34.442191095        51.410736632
       174           87.000000         0.003412077       179.574565167       -34.441296894       -34.442203191        69.293585764
       175           87.500000         0.003176303       167.165972350       -34.441394553       -34.442210372        94.025894353
       176           88.000000         0.002744503       144.440763493       -34.441276173       -34.442209277        61.502354855
       177           88.500000         0.002579786       135.771827293       -34.440995887       -34.442199314        86.647376758
       178           89.000000         0.002161934       113.780640773       -34.440723922       -34.442186585        59.252683863
       179           89.500000         0.002747313       144.588637358       -34.440661718       -34.442178081        79.951676951
       180           90.000000         0.002998673       157.817503740       -34.440940429       -34.442179884        63.966131145
       181           90.500000         0.003772397       198.537880837       -34.441536680       -34.442189964        64.425424343
       182           91.000000         0.004280006       225.252907733       -34.442262661       -34.442202649        78.577850227
       183           91.500000         0.005187618       273.019688734       -34.442952810       -34.442211734        74.039425022
       184           92.000000         0.005870741       308.971856104       -34.443454346       -34.442215387        60.767722550
       185           92.500000         0.006205964       326.614345093       -34.443707376       -34.442212514        85.147604457
       186           93.000000         0.006043066       318.041195104       -34.443728216       -34.442206101        61.558942962
       187           93.500000         0.006073888       319.663311789       -34.443621393       -34.442197664        55.015038122
       188           94.000000         0.006167359       324.582613528       -34.443510332       -34.442191245        63.995139038
       189           94.500000         0.006033959       317.561892565       -34.443494076       -34.442188444       105.980329134
       190           95.000000         0.005724949       301.298944215       -34.443612652       -34.442191947        69.390635303
       191           95.500000         0.005889667       309.967895640       -34.443825186       -34.442199915        66.681481596
       192           96.000000         0.005620040       295.777667949       -34.444015608       -34.442209525        81.683881841
       193           96.500000         0.005347679       281.443568290       -34.444072394       -34.442214850        65.570586513
       194           97.000000         0.004987950       262.511379803       -34.443945863       -34.442213787        56.939157218
       195           97.500000         0.004597948       241.985912337       -34.443684456       -34.442205698        64.312100884
       196           98.000000         0.005024050       264.411266219       -34.443407877       -34.442195347        51.086323832
       197           98.500000         0.004900240       257.895240227       -34.443252088       -34.442189075        59.462908205
       198           99.000000         0.004761030       250.568766323       -34.443330926       -34.442189833        59.837581179
       199           99.500000         0.004922275       259.054932723       -34.443638975       -34.442196555        79.205680616
       200          100.000000         0.005426959       285.616025869       -34.444079615       -34.442204873        64.639490619
       201          100.500000         0.006262342       329.581452587       -34.444544119       -34.442210408        67.960422291
       202          101.000000         0.005923760       311.762212608       -34.444925012       -34.442212373        56.272825247
       203          101.500000         0.005890235       309.997808486       -34.445182535       -34.442212307        61.758564954
       204          102.000000         0.005702812       300.133889168       -34.445343785       -34.442210503        71.893237592
       205          102.500000         0.005933281       312.263299171       -34.445441482       -34.442208020        96.826445493
       206          103.000000         0.005912199       311.153772456       -34.445518549       -34.442206348        84.351795616
       207          103.500000         0.005833188       306.995456589       -34.445608756       -34.442206088        79.841377766
       208          104.000000         0.005767709       303.549392191       -34.445715042       -34.442208312        58.223964638
       209          104.500000         0.005871389       309.005977588       -34.445808815       -34.442212737        88.001170078
       210          105.000000         0.006168248       324.629411949       -34.445823471       -34.442216768        51.701097747
       211          105.500000         0.006347455       334.060897040       -34.445696197       -34.442217698        69.830972675
       212          106.000000         0.006474435       340.743736162       -34.445399389       -34.442214230        53.414865157
       213          106.500000         0.005828857       306.767562091       -34.445000723       -34.442206235        55.751766918
       214          107.000000         0.005639779       296.816514259       -34.444620783       -34.442198890        74.134875219
       215          107.500000         0.005689682       299.442862947       -34.444367435       -34.442196905        63.305502979
       216          108.000000         0.005909036       310.987276217       -34.444271311       -34.442200243        87.365732755
       217          108.500000         0.005775104       303.938587307       -34.444286804       -34.442205161        65.634878728
       218          109.000000         0.005921240       311.629560252       -34.444334996       -34.442207619        75.802512223
       219          109.500000         0.005851947       307.982734399       -34.444375115       -34.442205808        51.962044014
       220          110.000000         0.005581863       293.768446605       -34.444436036       -34.442203292        76.925605977
       221          110.500000         0.005770395       303.690749992       -34.444559821       -34.442203164        58.224858100
       222          111.000000         0.006150228       323.680989413       -34.444754834       -34.442204192       100.926083431
       223          111.500000         0.006894533       362.853142868       -34.444998172       -34.442205671        68.518531210
       224          112.000000         0.007212760       379.601106307       -34.445251463       -34.442205848        68.988409113
       225          112.500000         0.007287681       383.544137350       -34.445490466       -34.442206600        69.612832872
       226          113.000000         0.007399850       389.447515519       -34.445727203       -34.442208358        97.189175587
       227          113.500000         0.007438039       391.457370521       -34.445923131       -34.442211852        71.770942172