#     Step Nr.          Time[fs]        Kin.[a.u.]          Temp[K]            Pot.[a.u.]        Cons Qty[a.u.]        UsedTime[s]
         0            0.000000         0.005700268       300.000000000       -34.447892042       -34.442191774         0.000000000
         1            0.500000         0.005667590       298.280219661       -34.447974892       -34.442189883       114.780140809
         2            1.000000         0.005386819       283.503492445       -34.447898091       -34.442183965        22.242180874
         3            1.500000         0.004835368       254.481098401       -34.447762903       -34.442179533        25.812684215
         4            2.000000         0.004560829       240.032373129       -34.447648715       -34.442178525        24.417828242
         5            2.500000         0.004570074       240.518929688       -34.447580734       -34.442181252        25.708251429
         6            3.000000         0.004870031       256.305386639       -34.447520720       -34.442184724        27.091091637
         7            3.500000         0.004194710       220.763842538       -34.447417961       -34.442186962        47.471191835
         8            4.000000         0.003780562       198.967599936       -34.447260911       -34.442186881        43.108062768
         9            4.500000         0.003706128       195.050196902       -34.447040584       -34.442185386        33.946368227
        10            5.000000         0.003582162       188.525970883       -34.446802960       -34.442183740        32.518063084
        11            5.500000         0.003470219       182.634544804       -34.446567843       -34.442181262        39.265564608
        12            6.000000         0.003151634       165.867708961       -34.446367776       -34.442178467        36.774360817
        13            6.500000         0.003491924       183.776832815       -34.446253222       -34.442176716        29.287594022
        14            7.000000         0.003872534       203.807993776       -34.446234145       -34.442175979        38.862941207
        15            7.500000         0.003912174       205.894203932       -34.446312781       -34.442177721        38.783978994
        16            8.000000         0.004306877       226.667084971       -34.446462004       -34.442182087        31.608298782
        17            8.500000         0.004244786       223.399289613       -34.446613201       -34.442185431        46.157345123
        18            9.000000         0.004258168       224.103608376       -34.446724569       -34.442186257        44.464926312
        19            9.500000         0.004291133       225.838486080       -34.446800843       -34.442185110        45.180366664
        20           10.000000         0.004413220       232.263822630       -34.446856556       -34.442182873        45.235293669
        21           10.500000         0.004546585       239.282686831       -34.446920114       -34.442182096        44.668330027
        22           11.000000         0.004905263       258.159626666       -34.446997673       -34.442184218        45.636588443
        23           11.500000         0.004581445       241.117353579       -34.447063278       -34.442186570        39.757646670
        24           12.000000         0.004782398       251.693349192       -34.447087073       -34.442187854        39.865450831
        25           12.500000         0.004766588       250.861265644       -34.447053494       -34.442187935        43.031172593
        26           13.000000         0.004779099       251.519706626       -34.446961376       -34.442186048        43.668262434
        27           13.500000         0.004394182       231.261887058       -34.446854210       -34.442184761        34.286823318
        28           14.000000         0.004333645       228.075884198       -34.446749884       -34.442184048        42.884189815
        29           14.500000         0.003710546       195.282730984       -34.446666272       -34.442184316        32.618309411
        30           15.000000         0.003536344       186.114618377       -34.446620705       -34.442184879        40.847874513
        31           15.500000         0.003650855       192.141263871       -34.446603469       -34.442186081        45.084612854
        32           16.000000         0.003681151       193.735674815       -34.446600348       -34.442187532        36.451216140
        33           16.500000         0.003938151       207.261400292       -34.446579522       -34.442189093        41.069155922
        34           17.000000         0.004292177       225.893439376       -34.446488145       -34.442189220        45.289598606
        35           17.500000         0.004161231       219.001893582       -34.446323705       -34.442185171        41.714803788
        36           18.000000         0.004336871       228.245651984       -34.446126116       -34.442177724        39.346379274
        37           18.500000         0.004041556       212.703498229       -34.446018277       -34.442172071        45.877156599
        38           19.000000         0.004466827       235.085100632       -34.446091325       -34.442172485        30.828698366
        39           19.500000         0.004128930       217.301911580       -34.446339386       -34.442180069        38.110182015
        40           20.000000         0.004509331       237.322057342       -34.446643012       -34.442190130        28.500261068
        41           20.500000         0.004871835       256.400323518       -34.446871288       -34.442197879        36.409802094
        42           21.000000         0.004992700       262.761323026       -34.446896017       -34.442198468        50.662025501
        43           21.500000         0.004960862       261.085749232       -34.446690948       -34.442192552        45.589789466
        44           22.000000         0.004639081       244.150693699       -34.446328329       -34.442183427        43.193654886
        45           22.500000         0.004469164       235.208099509       -34.445946442       -34.442175661        41.589895763
        46           23.000000         0.004233056       222.781956829       -34.445675830       -34.442171456        44.152746270
        47           23.500000         0.004249262       223.634892117       -34.445579858       -34.442172151        44.203130520
        48           24.000000         0.004187161       220.366525598       -34.445645201       -34.442177537        43.760006299
        49           24.500000         0.004524545       238.122773237       -34.445789830       -34.442185264        30.396987119
        50           25.000000         0.004550764       239.502635273       -34.445891885       -34.442193117        34.097591015
        51           25.500000         0.004172253       219.581955878       -34.445825628       -34.442197498        34.193153004
        52           26.000000         0.004071997       214.305594473       -34.445537444       -34.442194649        31.552030875
        53           26.500000         0.003956192       208.210862898       -34.445065224       -34.442184371        45.229527613
        54           27.000000         0.003204241       168.636367386       -34.444604698       -34.442171370        39.009228807
        55           27.500000         0.002705854       142.406685722       -34.444337193       -34.442163200        33.639289404
        56           28.000000         0.002998913       157.830090273       -34.444406276       -34.442165533        51.577824886
        57           28.500000         0.003077979       161.991300932       -34.444775841       -34.442177699        40.563717089
        58           29.000000         0.003574037       188.098384974       -34.445263117       -34.442191949        45.429276082
        59           29.500000         0.004000348       210.534729983       -34.445644992       -34.442201003        35.024998336
        60           30.000000         0.003504666       184.447446642       -34.445789328       -34.442201364        33.927909989
        61           30.500000         0.003401748       179.030976814       -34.445730797       -34.442196203        39.590906226
        62           31.000000         0.003242495       170.649614201       -34.445565618       -34.442188438        40.754173875
        63           31.500000         0.003488216       183.581707572       -34.445387217       -34.442181461        33.347804499
        64           32.000000         0.003918730       206.239259688       -34.445291593       -34.442177066        33.744820352
        65           32.500000         0.004210111       221.574361226       -34.445341683       -34.442177401        37.039115265
        66           33.000000         0.003971190       209.000162853       -34.445533142       -34.442181946        29.498403622
        67           33.500000         0.004419753       232.607670152       -34.445786241       -34.442190281        30.600516763
        68           34.000000         0.004498524       236.753287933       -34.445975862       -34.442199111        34.128993703
        69           34.500000         0.004970381       261.586741568       -34.445967580       -34.442205168        36.569044625
        70           35.000000         0.004653742       244.922264345       -34.445639407       -34.442202298        43.114615994
        71           35.500000         0.004344028       228.622304699       -34.445027137       -34.442188949        29.239240662
        72           36.000000         0.004231511       222.700638515       -34.444310608       -34.442169527        31.494171264
        73           36.500000         0.003332249       175.373275755       -34.443798339       -34.442156115        45.274871173
        74           37.000000         0.003019570       158.917288325       -34.443718533       -34.442157449        36.708310627
        75           37.500000         0.003500288       184.217048422       -34.444040279       -34.442172512        32.569391422
        76           38.000000         0.003796671       199.815389559       -34.444558015       -34.442191497        45.453010077
        77           38.500000         0.004243580       223.335823856       -34.444950509       -34.442202988        45.574791667
        78           39.000000         0.004445696       233.972999068       -34.445058126       -34.442202626        37.963115427
        79           39.500000         0.004426742       232.975473181       -34.444864558       -34.442192828        45.056705077
        80           40.000000         0.003832404       201.695986539       -34.444501208       -34.442178595        41.559064979
        81           40.500000         0.003715790       195.558730869       -34.444197270       -34.442167342        46.080919092
        82           41.000000         0.003962331       208.533963819       -34.444118287       -34.442161993        31.413308357
        83           41.500000         0.004334090       228.099266018       -34.444348169       -34.442165204        43.886572535
        84           42.000000         0.005033613       264.914576768       -34.444835146       -34.442176204        36.648784911
        85           42.500000         0.005824540       306.540347900       -34.445410055       -34.442192591        45.301922418
        86           43.000000         0.006431547       338.486581097       -34.445799102       -34.442207276        45.199430352
        87           43.500000         0.006459002       339.931539364       -34.445771065       -34.442212804        45.463151581
        88           44.000000         0.005794429       304.955645470       -34.445227867       -34.442203689        30.651163417
        89           44.500000         0.004992038       262.726520867       -34.444361525       -34.442183561        32.883603406
        90           45.000000         0.004464235       234.948731036       -34.443437122       -34.442161346        31.258918197
        91           45.500000         0.003442916       181.197576172       -34.442812323       -34.442150733        34.085070538
        92           46.000000         0.003171692       166.923319427       -34.442680368       -34.442156991        42.685908757
        93           46.500000         0.003574462       188.120720509       -34.442933034       -34.442175122        30.170253517
        94           47.000000         0.003732412       196.433492533       -34.443289462       -34.442191812        36.989230532
        95           47.500000         0.003827172       201.420656041       -34.443514251       -34.442199746        35.942726695
        96           48.000000         0.003819543       201.019165441       -34.443489352       -34.442196741        37.800508456
        97           48.500000         0.003464091       182.312001532       -34.443267511       -34.442186842        29.673080356
        98           49.000000         0.003121184       164.265148924       -34.443006053       -34.442174910        32.679768756
        99           49.500000         0.003084447       162.331718313       -34.442881595       -34.442166000        43.564060110
       100           50.000000         0.003579072       188.363354746       -34.443039090       -34.442162987        29.152327626
       101           50.500000         0.004531504       238.489008568       -34.443544969       -34.442168051        29.474951543
       102           51.000000         0.006276625       330.333164327       -34.444318431       -34.442180117        53.431488243
       103           51.500000         0.007103992       373.876764973       -34.445151248       -34.442197138        32.724281924
       104           52.000000         0.007751904       407.975800920       -34.445724251       -34.442210826        31.598904358
       105           52.500000         0.008224540       432.850223352       -34.445827151       -34.442214947        29.944165834
       106           53.000000         0.007650240       402.625329138       -34.445389141       -34.442203666        29.345579158
       107           53.500000         0.006913276       363.839561240       -34.444580291       -34.442181333        31.828398585
       108           54.000000         0.005698048       299.883189324       -34.443809021       -34.442161098        43.350316223
       109           54.500000         0.005168879       272.033498781       -34.443374787       -34.442155619        31.567461251
       110           55.000000         0.005259146       276.784172048       -34.443333633       -34.442166835        44.477027912
       111           55.500000         0.005186921       272.983019590       -34.443535523       -34.442184875        30.228861359
       112           56.000000         0.005287198       278.260489809       -34.443721282       -34.442199966        31.795501788
       113           56.500000         0.005093374       268.059717151       -34.443656340       -34.442202941        35.175893076
       114           57.000000         0.004369875       229.982640310       -34.443315371       -34.442195417        41.728473708
       115           57.500000         0.003520944       185.304164966       -34.442836664       -34.442183445        43.608332182
       116           58.000000         0.002897682       152.502426496       -34.442472500       -34.442173153        45.533343034
       117           58.500000         0.002687437       141.437425710       -34.442353315       -34.442167976        43.768222948
       118           59.000000         0.002562034       134.837568294       -34.442560485       -34.442170870        34.351119938
       119           59.500000         0.002888309       152.009139006       -34.443057351       -34.442180369        34.126315632
       120           60.000000         0.004015427       211.328336164       -34.443710589       -34.442194626        34.402555122
       121           60.500000         0.004559222       239.947784670       -34.444281347       -34.442208643        45.665652448
       122           61.000000         0.004941881       260.086805592       -34.444571984       -34.442215025        41.746606750
       123           61.500000         0.004822355       253.796228722       -34.444461882       -34.442209652        41.542854730
       124           62.000000         0.004143337       218.060119183       -34.444052609       -34.442195727        29.840911160
       125           62.500000         0.003322879       174.880172537       -34.443591060       -34.442181171        31.766609269
       126           63.000000         0.002923235       153.847261358       -34.443311911       -34.442175870        38.316842872
       127           63.500000         0.003233197       170.160293126       -34.443286353       -34.442182893        35.584359052
       128           64.000000         0.003370506       177.386719556       -34.443415323       -34.442196306        45.051495416
       129           64.500000         0.003714477       195.489596606       -34.443485000       -34.442207434        35.779323916
       130           65.000000         0.003223538       169.651911278       -34.443317067       -34.442210468        43.850420514
       131           65.500000         0.003424700       180.238925689       -34.442854968       -34.442203750        37.629043081
       132           66.000000         0.002732294       143.798212309       -34.442130557       -34.442190332        45.375898772
       133           66.500000         0.002128324       112.011819531       -34.441395944       -34.442176243        52.708997560
       134           67.000000         0.001740776        91.615481031       -34.440845105       -34.442166185        39.378289745
       135           67.500000         0.001662780        87.510638416       -34.440593639       -34.442161801        31.312938986
       136           68.000000         0.001954457       102.861333134       -34.440743341       -34.442165588        52.648216826
       137           68.500000         0.002343176       123.319258316       -34.441246812       -34.442176471        36.961403853
       138           69.000000         0.003142804       165.402947004       -34.441926171       -34.442191735        29.783282638
       139           69.500000         0.003683264       193.846897114       -34.442532052       -34.442204909        40.309337259
       140           70.000000         0.003881233       204.265836869       -34.442884540       -34.442210790        38.375498744
       141           70.500000         0.004172188       219.578536042       -34.442926028       -34.442205696        38.298379330
       142           71.000000         0.003954963       208.146166013       -34.442718242       -34.442191535        44.799836883
       143           71.500000         0.003973149       209.103292906       -34.442465869       -34.442175773        38.425658824
       144           72.000000         0.004390404       231.063058519       -34.442407567       -34.442170149        40.893876229
       145           72.500000         0.004869731       256.289596188       -34.442632317       -34.442178263        45.315639695
       146           73.000000         0.005060242       266.316048764       -34.443007370       -34.442195475        43.649848570
       147           73.500000         0.004890834       257.400223152       -34.443270246       -34.442209765        44.019180559
       148           74.000000         0.004627995       243.567224270       -34.443221366       -34.442215070        30.161657245
       149           74.500000         0.004295692       226.078451459       -34.442812675       -34.442209966        30.931500484
       150           75.000000         0.003470805       182.665353446       -34.442122845       -34.442198709        36.823571581
       151           75.500000         0.002700143       142.106115662       -34.441338650       -34.442185209        36.431218430
       152           76.000000         0.002108345       110.960309147       -34.440672765       -34.442175245        34.564385070
       153           76.500000         0.001841072        96.893974079       -34.440232934       -34.442170138        39.099950422
       154           77.000000         0.002230169       117.371803241       -34.440117496       -34.442173154        47.561146798
       155           77.500000         0.002683302       141.219771544       -34.440290025       -34.442182973        34.689168152
       156           78.000000         0.003070185       161.581099567       -34.440586630       -34.442197071        52.477104932
       157           78.500000         0.003312185       174.317336603       -34.440768873       -34.442205634        52.329262319
       158           79.000000         0.003421896       180.091352013       -34.440728046       -34.442204567        36.228767341
       159           79.500000         0.003109493       163.649858714       -34.440472924       -34.442191186        40.949079617
       160           80.000000         0.002854098       150.208606124       -34.440189842       -34.442173269        51.797459413
       161           80.500000         0.002734263       143.901833741       -34.440178082       -34.442164206        36.672166212
       162           81.000000         0.003056534       160.862678333       -34.440578450       -34.442171310        52.476058773
       163           81.500000         0.003517798       185.138561979       -34.441257163       -34.442188739        52.163983836
       164           82.000000         0.003536635       186.129931262       -34.441958563       -34.442206498        39.393782872
       165           82.500000         0.003948909       207.827563851       -34.442460225       -34.442216426        45.507469125
       166           83.000000         0.004119339       216.797145710       -34.442636950       -34.442217085        45.972108502
       167           83.500000         0.004265175       224.472360775       -34.442460439       -34.442209160        33.302246974
       168           84.000000         0.003918362       206.219893653       -34.442028864       -34.442197688        52.535114195
       169           84.500000         0.003923179       206.473391446       -34.441519073       -34.442186163        32.001037923
       170           85.000000         0.003486716       183.502753266       -34.441065974       -34.442178135        29.641098100
       171           85.500000         0.003091060       162.679729520       -34.440829263       -34.442175801        37.212373218
       172           86.000000         0.002742789       144.350536554       -34.440850357       -34.442180924        44.844524374
       173           86.500000         0.003045040       160.257732361       -34.441057798       -34.442191095        31.627021677
       174           87.000000         0.003412077       179.574565173       -34.441296894       -34.442203191        41.240520497
       175           87.500000         0.003176303       167.165972356       -34.441394553       -34.442210372        42.281553451
       176           88.000000         0.002744503       144.440763499       -34.441276173       -34.442209277        45.009355751
       177           88.500000         0.002579786       135.771827300       -34.440995887       -34.442199314        30.819948717
       178           89.000000         0.002161934       113.780640780       -34.440723922       -34.442186585        42.460371067
       179           89.500000         0.002747313       144.588637366       -34.440661718       -34.442178081        30.707973906
       180           90.000000         0.002998673       157.817503747       -34.440940429       -34.442179884        37.055531206
       181           90.500000         0.003772397       198.537880846       -34.441536680       -34.442189964        43.020614350
       182           91.000000         0.004280006       225.252907741       -34.442262661       -34.442202649        52.251848450
       183           91.500000         0.005187618       273.019688743       -34.442952810       -34.442211734        44.991677132
       184           92.000000         0.005870741       308.971856113       -34.443454346       -34.442215387        37.387862532
       185           92.500000         0.006205964       326.614345101       -34.443707376       -34.442212514        44.506612300
       186           93.000000         0.006043066       318.041195112       -34.443728216       -34.442206101        50.003947036
       187           93.500000         0.006073888       319.663311796       -34.443621393       -34.442197664        38.403815377
       188           94.000000         0.006167359       324.582613535       -34.443510332       -34.442191245        44.956197607
       189           94.500000         0.006033959       317.561892571       -34.443494076       -34.442188444        35.629783547
       190           95.000000         0.005724949       301.298944220       -34.443612652       -34.442191947        51.304004664
       191           95.500000         0.005889667       309.967895644       -34.443825186       -34.442199915        29.701389969
       192           96.000000         0.005620040       295.777667953       -34.444015608       -34.442209525        29.842318097
       193           96.500000         0.005347679       281.443568293       -34.444072394       -34.442214850        33.828585595
       194           97.000000         0.004987950       262.511379805       -34.443945863       -34.442213787        41.862114599
       195           97.500000         0.004597948       241.985912338       -34.443684456       -34.442205698        32.452265408
       196           98.000000         0.005024050       264.411266220       -34.443407877       -34.442195347        38.107001431
       197           98.500000         0.004900240       257.895240227       -34.443252088       -34.442189075        29.582151408
       198           99.000000         0.004761030       250.568766323       -34.443330926       -34.442189833        41.457188082
       199           99.500000         0.004922275       259.054932724       -34.443638975       -34.442196555        43.150293413
       200          100.000000         0.005426959       285.616025870       -34.444079615       -34.442204873        45.319581011
       201          100.500000         0.006262342       329.581452589       -34.444544119       -34.442210408        35.249871042
       202          101.000000         0.005923760       311.762212610       -34.444925012       -34.442212373        29.773229130
       203          101.500000         0.005890235       309.997808488       -34.445182535       -34.442212307        34.418095463
       204          102.000000         0.005702812       300.133889169       -34.445343785       -34.442210503        45.298601565
       205          102.500000         0.005933281       312.263299173       -34.445441482       -34.442208020        48.216313852
       206          103.000000         0.005912199       311.153772458       -34.445518549       -34.442206348        32.554172452
       207          103.500000         0.005833188       306.995456591       -34.445608756       -34.442206088        37.858449044
       208          104.000000         0.005767709       303.549392195       -34.445715042       -34.442208312        33.257063540
       209          104.500000         0.005871389       309.005977592       -34.445808815       -34.442212737        29.738633973
       210          105.000000         0.006168248       324.629411954       -34.445823471       -34.442216768        38.259704722
       211          105.500000         0.006347455       334.060897046       -34.445696197       -34.442217698        45.490638368
       212          106.000000         0.006474435       340.743736168       -34.445399389       -34.442214230        45.270674160
       213          106.500000         0.005828857       306.767562096       -34.445000723       -34.442206235        40.279347622
       214          107.000000         0.005639779       296.816514264       -34.444620783       -34.442198890        32.721511343
       215          107.500000         0.005689682       299.442862952       -34.444367435       -34.442196905        34.702314552
       216          108.000000         0.005909036       310.987276223       -34.444271311       -34.442200243        35.502737277
       217          108.500000         0.005775104       303.938587314       -34.444286804       -34.442205161        31.713053980
       218          109.000000         0.005921240       311.629560260       -34.444334996       -34.442207619        42.666678953
       219          109.500000         0.005851947       307.982734408       -34.444375115       -34.442205808        35.812050172
       220          110.000000         0.005581863       293.768446613       -34.444436036       -34.442203292        44.943665515
       221          110.500000         0.005770395       303.690749999       -34.444559821       -34.442203164        34.041742003
       222          111.000000         0.006150228       323.680989419       -34.444754834       -34.442204192        45.308018936
       223          111.500000         0.006894533       362.853142872       -34.444998172       -34.442205671        44.820648071
       224          112.000000         0.007212760       379.601106311       -34.445251463       -34.442205848        37.016137445
       225          112.500000         0.007287681       383.544137354       -34.445490466       -34.442206600        37.747174928
       226          113.000000         0.007399850       389.447515523       -34.445727203       -34.442208358        35.260945049
       227          113.500000         0.007438039       391.457370525       -34.445923131       -34.442211852        33.727147224