 DBCSR| Multiplication driver                                               BLAS
 DBCSR| Multrec recursion limit                                              512
 DBCSR| Multiplication stack size                                           1000
 DBCSR| Maximum elements for images                                    UNLIMITED
 DBCSR| Multiplicative factor virtual images                                   1
 DBCSR| Multiplication size stacks                                             3


  **** **** ******  **  PROGRAM STARTED AT               2020-05-18 23:42:38.329
 ***** ** ***  *** **   PROGRAM STARTED ON                                 sheep
 **    ****   ******    PROGRAM STARTED BY                                 sim03
 ***** **    ** ** **   PROGRAM PROCESS ID                               3455013
  **** **  *******  **  PROGRAM STARTED IN /auto.eland/home/sim03/Documents/SimP
                                           hys/Summer/2/cp2k/DIMER_MD_TEST_300K

 CP2K| version string:                                          CP2K version 5.1
 CP2K| source code revision number:                                    svn:18091
 CP2K| cp2kflags: fftw3 max_contr=4                                             
 CP2K| is freely available from                            https://www.cp2k.org/
 CP2K| Program compiled at                         Thu May  9 16:52:28 CEST 2019
 CP2K| Program compiled on                                                  cip0
 CP2K| Program compiled for                                                 icp2
 CP2K| Data directory path          /auto.eland/group/allatom/cp2k/cp2k-5.1/data
 CP2K| Input file name                                        water_dimer_md.inp

 GLOBAL| Force Environment number                                              1
 GLOBAL| Basis set file name                                      ./BASIS_MOLOPT
 GLOBAL| Potential file name                                    ./GTH_POTENTIALS
 GLOBAL| MM Potential file name                                     MM_POTENTIAL
 GLOBAL| Coordinate file name                                    water-dimer.xyz
 GLOBAL| Method name                                                        CP2K
 GLOBAL| Project name                                             water_dimer_md
 GLOBAL| Preferred FFT library                                             FFTW3
 GLOBAL| Preferred diagonalization lib.                                       SL
 GLOBAL| Run type                                                             MD
 GLOBAL| All-to-all communication in single precision                          F
 GLOBAL| FFTs using library dependent lengths                                  F
 GLOBAL| Global print level                                                  LOW
 GLOBAL| Total number of message passing processes                             1
 GLOBAL| Number of threads for this process                                    1
 GLOBAL| This output is from process                                           0
 GLOBAL| CPU model name :  Intel(R) Core(TM) i7-3930K CPU @ 3.20GHz

 MEMORY| system memory details [Kb]
 MEMORY|                        rank 0           min           max       average
 MEMORY| MemTotal              8112104       8112104       8112104       8112104
 MEMORY| MemFree               2359704       2359704       2359704       2359704
 MEMORY| Buffers                 85716         85716         85716         85716
 MEMORY| Cached                2188660       2188660       2188660       2188660
 MEMORY| Slab                   336576        336576        336576        336576
 MEMORY| SReclaimable           251808        251808        251808        251808
 MEMORY| MemLikelyFree         4885888       4885888       4885888       4885888


 GENERATE|  Preliminary Number of Bonds generated:                             0
 GENERATE|  Achieved consistency in connectivity generation.

 *******************************************************************************
 *******************************************************************************
 **                                                                           **
 **     #####                         ##              ##                      **
 **    ##   ##            ##          ##              ##                      **
 **   ##     ##                       ##            ######                    **
 **   ##     ##  ##   ##  ##   #####  ##  ##   ####   ##    #####    #####    **
 **   ##     ##  ##   ##  ##  ##      ## ##   ##      ##   ##   ##  ##   ##   **
 **   ##  ## ##  ##   ##  ##  ##      ####     ###    ##   ######   ######    **
 **    ##  ###   ##   ##  ##  ##      ## ##      ##   ##   ##       ##        **
 **     #######   #####   ##   #####  ##  ##  ####    ##    #####   ##        **
 **           ##                                                    ##        **
 **                                                                           **
 **                                                ... make the atoms dance   **
 **                                                                           **
 **            Copyright (C) by CP2K developers group (2000 - 2017)           **
 **                                                                           **
 *******************************************************************************


 SCF PARAMETERS         Density guess:                                    ATOMIC
                        --------------------------------------------------------
                        max_scf:                                              50
                        max_scf_history:                                       0
                        max_diis:                                              4
                        --------------------------------------------------------
                        eps_scf:                                        1.00E-06
                        eps_scf_history:                                0.00E+00
                        eps_diis:                                       1.00E-01
                        eps_eigval:                                     1.00E-05
                        --------------------------------------------------------
                        level_shift [a.u.]:                                 0.00
                        --------------------------------------------------------
                        Outer loop SCF in use 
                        No variables optimised in outer loop
                        eps_scf                                         1.00E-06
                        max_scf                                               50
                        No outer loop optimization
                        step_size                                       5.00E-01

 MD| Molecular Dynamics Protocol 
 MD| Ensemble Type                                                           NVT
 MD| Number of Time Steps                                                   2000
 MD| Time Step [fs]                                                         0.50
 MD| Temperature [K]                                                      300.00
 MD| Temperature tolerance [K]                                              0.00
 MD| Print MD information every                                        1 step(s)
 MD| File type     Print frequency[steps]                             File names
 MD| Coordinates            1                           water_dimer_md-pos-1.xyz
 MD| Velocities             1                           water_dimer_md-vel-1.xyz
 MD| Energies               1                              water_dimer_md-1.ener
 MD| Dump                  20                           water_dimer_md-1.restart

 ROT| Rotational Analysis Info 
 ROT| Principal axes and moments of inertia in atomic units:
 ROT|                                1                 2                 3
 ROT| EIGENVALUES            0.156487566E+05   0.520642743E+06   0.520764209E+06
 ROT|      X                     0.999210353      -0.028633601       0.027546084
 ROT|      Y                    -0.002853408      -0.743212415      -0.669049448
 ROT|      Z                     0.039629887       0.668442535      -0.742707244
 ROT| Numer of Rotovibrational vectors:     6

 Calculation of degrees of freedom
                                                      Number of atoms:         6
                                 Number of Intramolecular constraints:         0
                                 Number of Intermolecular constraints:         0
                                  Invariants(translation + rotations):         6
                                                   Degrees of freedom:        12


 Restraints Information
                                  Number of Intramolecular restraints:         0
                                  Number of Intermolecular restraints:         0

 THERMOSTAT| Thermostat Info for PARTICLES
 THERMOSTAT| Type of thermostat            Canonical Sampling/Velocity Rescaling
 THERMOSTAT| CSVR time constant [  fs]                                     50.00
 THERMOSTAT| Initial Kinetic Energy                                     0.000000
 THERMOSTAT| End of Thermostat Info for PARTICLES

 ************************** Velocities initialization **************************
 Initial Temperature                                                    300.00 K
 COM velocity:           -0.000000000000     -0.000000000000      0.000000000000
 COM position:           14.331694840386     14.161896398666     13.839209664972
 Angular velocity:        0.000000000000     -0.000000000000     -0.000000000000
 *******************************************************************************


 Number of electrons:                                                         16
 Number of occupied orbitals:                                                  8
 Number of molecular orbitals:                                                 8

 Number of orbital functions:                                                 46
 Number of independent orbital functions:                                     46

 Extrapolation method: initial_guess


 SCF WAVEFUNCTION OPTIMIZATION

  ----------------------------------- OT ---------------------------------------
  Minimizer      : DIIS                : direct inversion
                                         in the iterative subspace
                                         using   7 DIIS vectors
                                         safer DIIS on
  Preconditioner : FULL_ALL            : diagonalization, state selective
  Precond_solver : DEFAULT
  stepsize       :    0.15000000                  energy_gap     :    0.08000000
  eps_taylor     :   0.10000E-15                  max_taylor     :             4
  ----------------------------------- OT ---------------------------------------

  Step     Update method      Time    Convergence         Total energy    Change
  ------------------------------------------------------------------------------
     1 OT DIIS     0.15E+00    7.0     0.28765090       -32.6428713339 -3.26E+01
     2 OT DIIS     0.15E+00    5.8     0.20330479       -33.1064055612 -4.64E-01
     3 OT DIIS     0.15E+00    5.8     0.12485656       -34.2161262384 -1.11E+00
     4 OT DIIS     0.15E+00    5.7     0.05056557       -34.4037723111 -1.88E-01
     5 OT DIIS     0.15E+00    5.7     0.04993112       -34.4268803688 -2.31E-02
     6 OT DIIS     0.15E+00    5.7     0.03281412       -34.4395301201 -1.26E-02
     7 OT DIIS     0.15E+00    5.8     0.00930861       -34.4467688678 -7.24E-03
     8 OT DIIS     0.15E+00    6.0     0.00505819       -34.4475790129 -8.10E-04
     9 OT DIIS     0.15E+00    5.9     0.00205437       -34.4478298684 -2.51E-04
    10 OT DIIS     0.15E+00    6.0     0.00067582       -34.4478830684 -5.32E-05
    11 OT DIIS     0.15E+00    6.0     0.00035272       -34.4478894503 -6.38E-06
    12 OT DIIS     0.15E+00    6.0     0.00017550       -34.4478912681 -1.82E-06
    13 OT DIIS     0.15E+00    6.5     0.00011527       -34.4478918286 -5.60E-07
    14 OT DIIS     0.15E+00    6.5     0.00007454       -34.4478919583 -1.30E-07
    15 OT DIIS     0.15E+00    6.5     0.00002645       -34.4478920270 -6.86E-08
    16 OT DIIS     0.15E+00    6.7     0.00001952       -34.4478920364 -9.40E-09
    17 OT DIIS     0.15E+00    7.2     0.00001213       -34.4478920396 -3.27E-09
    18 OT DIIS     0.15E+00    7.1     0.00000854       -34.4478920408 -1.12E-09
    19 OT DIIS     0.15E+00    7.0     0.00000290       -34.4478920414 -6.89E-10
    20 OT DIIS     0.15E+00    7.0     0.00000194       -34.4478920416 -1.26E-10
    21 OT DIIS     0.15E+00    7.1     0.00000102       -34.4478920416 -5.19E-11
    22 OT DIIS     0.15E+00    6.9     0.00000079       -34.4478920416 -1.37E-11

  *** SCF run converged in    22 steps ***


  Electronic density on regular grids:        -15.9999998644        0.0000001356
  Core density on regular grids:               15.9999999995       -0.0000000005
  Total charge density on r-space grids:        0.0000001351
  Total charge density g-space grids:           0.0000001351

  Overlap energy of the core charge distribution:               0.00000011467697
  Self energy of the core charge distribution:                -88.69430999347530
  Core Hamiltonian energy:                                     25.83840545202619
  Hartree energy:                                              36.87664754674594
  Exchange-correlation energy:                                 -8.46792359880912
  Dispersion energy:                                           -0.00071156280609

  Total energy:                                               -34.44789204164142

  outer SCF iter =    1 RMS gradient =   0.79E-06 energy =        -34.4478920416
  outer SCF loop converged in   1 iterations or   22 steps


 MOMENTS
  The electric/magnetic moments are written to file:
  water_dimer_dipole.out


 ENERGY| Total FORCE_EVAL ( QS ) energy (a.u.):              -34.447892041644742


 MD_ENERGIES| Initialization proceeding


 ******************************** GO CP2K GO! **********************************
 INITIAL POTENTIAL ENERGY[hartree]     =                     -0.344478920416E+02
 INITIAL KINETIC ENERGY[hartree]       =                      0.570026761792E-02
 INITIAL TEMPERATURE[K]                =                                 300.000
 INITIAL VOLUME[bohr^3]                =                      0.227756292179E+05
 INITIAL CELL LNTHS[bohr]   =      0.2834589E+02   0.2834589E+02   0.2834589E+02
 INITIAL CELL ANGLS[deg]    =      0.9000000E+02   0.9000000E+02   0.9000000E+02
 ******************************** GO CP2K GO! **********************************

 Number of electrons:                                                         16
 Number of occupied orbitals:                                                  8
 Number of molecular orbitals:                                                 8

 Number of orbital functions:                                                 46
 Number of independent orbital functions:                                     46

 Extrapolation method: ASPC


 SCF WAVEFUNCTION OPTIMIZATION

  ----------------------------------- OT ---------------------------------------
  Minimizer      : DIIS                : direct inversion
                                         in the iterative subspace
                                         using   7 DIIS vectors
                                         safer DIIS on
  Preconditioner : FULL_ALL            : diagonalization, state selective
  Precond_solver : DEFAULT
  stepsize       :    0.15000000                  energy_gap     :    0.08000000
  eps_taylor     :   0.10000E-15                  max_taylor     :             4
  ----------------------------------- OT ---------------------------------------

  Step     Update method      Time    Convergence         Total energy    Change
  ------------------------------------------------------------------------------
     1 OT DIIS     0.15E+00    6.1     0.00156222       -34.4478652683 -3.44E+01
     2 OT DIIS     0.15E+00    6.9     0.00061798       -34.4479577782 -9.25E-05
     3 OT DIIS     0.15E+00    6.8     0.00019600       -34.4479742049 -1.64E-05
     4 OT DIIS     0.15E+00    6.9     0.00002264       -34.4479748796 -6.75E-07
     5 OT DIIS     0.15E+00    6.9     0.00000542       -34.4479748913 -1.16E-08
     6 OT DIIS     0.15E+00    6.8     0.00000290       -34.4479748920 -7.63E-10
     7 OT DIIS     0.15E+00    6.9     0.00000016       -34.4479748922 -1.80E-10

  *** SCF run converged in     7 steps ***


  Electronic density on regular grids:        -15.9999998666        0.0000001334
  Core density on regular grids:               15.9999999995       -0.0000000005
  Total charge density on r-space grids:        0.0000001329
  Total charge density g-space grids:           0.0000001329

  Overlap energy of the core charge distribution:               0.00000011308681
  Self energy of the core charge distribution:                -88.69430999347530
  Core Hamiltonian energy:                                     25.83074136031077
  Hartree energy:                                              36.88229614132653
  Exchange-correlation energy:                                 -8.46599357012950
  Dispersion energy:                                           -0.00070894332456

  Total energy:                                               -34.44797489220526

  outer SCF iter =    1 RMS gradient =   0.16E-06 energy =        -34.4479748922
  outer SCF loop converged in   1 iterations or    7 steps


 MOMENTS
  The electric/magnetic moments are written to file:
  water_dimer_dipole.out


 ENERGY| Total FORCE_EVAL ( QS ) energy (a.u.):              -34.447974892204357


 *******************************************************************************
 ENSEMBLE TYPE                =                                              NVT
 STEP NUMBER                  =                                                1
 TIME [fs]                    =                                         0.500000
 CONSERVED QUANTITY [hartree] =                              -0.344421898830E+02

                                              INSTANTANEOUS             AVERAGES
 CPU TIME [s]                 =                      203.66               203.66
 ENERGY DRIFT PER ATOM [K]    =          0.995231276086E-01   0.000000000000E+00
 POTENTIAL ENERGY[hartree]    =         -0.344479748922E+02  -0.344479748922E+02
 KINETIC ENERGY [hartree]     =          0.566759025733E-02   0.566759025733E-02
 TEMPERATURE [K]              =                     298.280              298.280
 *******************************************************************************


 Number of electrons:                                                         16
 Number of occupied orbitals:                                                  8
 Number of molecular orbitals:                                                 8

 Number of orbital functions:                                                 46
 Number of independent orbital functions:                                     46

 Extrapolation method: ASPC


 SCF WAVEFUNCTION OPTIMIZATION

  ----------------------------------- OT ---------------------------------------
  Minimizer      : DIIS                : direct inversion
                                         in the iterative subspace
                                         using   7 DIIS vectors
                                         safer DIIS on
  Preconditioner : FULL_ALL            : diagonalization, state selective
  Precond_solver : DEFAULT
  stepsize       :    0.15000000                  energy_gap     :    0.08000000
  eps_taylor     :   0.10000E-15                  max_taylor     :             4
  ----------------------------------- OT ---------------------------------------

  Step     Update method      Time    Convergence         Total energy    Change
  ------------------------------------------------------------------------------
     1 OT DIIS     0.15E+00    6.1     0.00026103       -34.4478955566 -3.44E+01
     2 OT DIIS     0.15E+00    6.9     0.00011891       -34.4478976624 -2.11E-06
     3 OT DIIS     0.15E+00    6.9     0.00005999       -34.4478979933 -3.31E-07
     4 OT DIIS     0.15E+00    7.0     0.00000460       -34.4478980904 -9.71E-08
     5 OT DIIS     0.15E+00    6.8     0.00000090       -34.4478980912 -8.61E-10

  *** SCF run converged in     5 steps ***


  Electronic density on regular grids:        -15.9999998705        0.0000001295
  Core density on regular grids:               15.9999999995       -0.0000000005
  Total charge density on r-space grids:        0.0000001290
  Total charge density g-space grids:           0.0000001290

  Overlap energy of the core charge distribution:               0.00000010953170
  Self energy of the core charge distribution:                -88.69430999347530
  Core Hamiltonian energy:                                     25.81570952698379
  Hartree energy:                                              36.89335855896570
  Exchange-correlation energy:                                 -8.46195036017601
  Dispersion energy:                                           -0.00070593304047

  Total energy:                                               -34.44789809121060

  outer SCF iter =    1 RMS gradient =   0.90E-06 energy =        -34.4478980912
  outer SCF loop converged in   1 iterations or    5 steps


 MOMENTS
  The electric/magnetic moments are written to file:
  water_dimer_dipole.out


 ENERGY| Total FORCE_EVAL ( QS ) energy (a.u.):              -34.447898091243793


 Temperature scaled to requested temperature:    283.50 K  ->    283.50 K
 MD| Old VCOM =     0.0000003451   -0.0000002150    0.0000018439 a.u.
 MD| New VCOM =     0.0000000000    0.0000000000   -0.0000000000 a.u
 MD| Old VANG =    -0.0000000846    0.0000012347    0.0000001504 a.u.
 MD| New VANG =     0.0000000000    0.0000000000   -0.0000000000 a.u

 *******************************************************************************
 ENSEMBLE TYPE                =                                              NVT
 STEP NUMBER                  =                                                2
 TIME [fs]                    =                                         1.000000
 CONSERVED QUANTITY [hartree] =                              -0.344421839654E+02

                                              INSTANTANEOUS             AVERAGES
 CPU TIME [s]                 =                       42.20               122.93
 ENERGY DRIFT PER ATOM [K]    =          0.410961533743E+00   0.205480766871E+00
 POTENTIAL ENERGY[hartree]    =         -0.344478980912E+02  -0.344479364917E+02
 KINETIC ENERGY [hartree]     =          0.538681925850E-02   0.552720475792E-02
 TEMPERATURE [K]              =                     283.503              290.892
 *******************************************************************************


 Number of electrons:                                                         16
 Number of occupied orbitals:                                                  8
 Number of molecular orbitals:                                                 8

 Number of orbital functions:                                                 46
 Number of independent orbital functions:                                     46

 Extrapolation method: ASPC


 SCF WAVEFUNCTION OPTIMIZATION

  ----------------------------------- OT ---------------------------------------
  Minimizer      : DIIS                : direct inversion
                                         in the iterative subspace
                                         using   7 DIIS vectors
                                         safer DIIS on
  Preconditioner : FULL_ALL            : diagonalization, state selective
  Precond_solver : DEFAULT
  stepsize       :    0.15000000                  energy_gap     :    0.08000000
  eps_taylor     :   0.10000E-15                  max_taylor     :             4
  ----------------------------------- OT ---------------------------------------

  Step     Update method      Time    Convergence         Total energy    Change
  ------------------------------------------------------------------------------
     1 OT DIIS     0.15E+00    6.1     0.00019654       -34.4477612585 -3.44E+01
     2 OT DIIS     0.15E+00    7.0     0.00007528       -34.4477626635 -1.40E-06
     3 OT DIIS     0.15E+00    6.8     0.00003470       -34.4477628784 -2.15E-07
     4 OT DIIS     0.15E+00    6.9     0.00000489       -34.4477629025 -2.40E-08
     5 OT DIIS     0.15E+00    7.0     0.00000110       -34.4477629031 -6.19E-10
     6 OT DIIS     0.15E+00    7.0     0.00000061       -34.4477629031 -2.86E-11

  *** SCF run converged in     6 steps ***


  Electronic density on regular grids:        -15.9999998758        0.0000001242
  Core density on regular grids:               15.9999999995       -0.0000000005
  Total charge density on r-space grids:        0.0000001237
  Total charge density g-space grids:           0.0000001236

  Overlap energy of the core charge distribution:               0.00000010237631
  Self energy of the core charge distribution:                -88.69430999347530
  Core Hamiltonian energy:                                     25.79513327528889
  Hartree energy:                                              36.90843438926258
  Exchange-correlation energy:                                 -8.45631785791183
  Dispersion energy:                                           -0.00070281864848

  Total energy:                                               -34.44776290310782

  outer SCF iter =    1 RMS gradient =   0.61E-06 energy =        -34.4477629031
  outer SCF loop converged in   1 iterations or    6 steps


 MOMENTS
  The electric/magnetic moments are written to file:
  water_dimer_dipole.out


 ENERGY| Total FORCE_EVAL ( QS ) energy (a.u.):              -34.447762903112910


 *******************************************************************************
 ENSEMBLE TYPE                =                                              NVT
 STEP NUMBER                  =                                                3
 TIME [fs]                    =                                         1.500000
 CONSERVED QUANTITY [hartree] =                              -0.344421795331E+02

                                              INSTANTANEOUS             AVERAGES
 CPU TIME [s]                 =                       48.86                98.24
 ENERGY DRIFT PER ATOM [K]    =          0.644231000697E+00   0.351730844813E+00
 POTENTIAL ENERGY[hartree]    =         -0.344477629031E+02  -0.344478786289E+02
 KINETIC ENERGY [hartree]     =          0.483536788196E-02   0.529659246593E-02
 TEMPERATURE [K]              =                     254.481              278.755
 *******************************************************************************


 Number of electrons:                                                         16
 Number of occupied orbitals:                                                  8
 Number of molecular orbitals:                                                 8

 Number of orbital functions:                                                 46
 Number of independent orbital functions:                                     46

 Extrapolation method: ASPC


 SCF WAVEFUNCTION OPTIMIZATION

  ----------------------------------- OT ---------------------------------------
  Minimizer      : DIIS                : direct inversion
                                         in the iterative subspace
                                         using   7 DIIS vectors
                                         safer DIIS on
  Preconditioner : FULL_ALL            : diagonalization, state selective
  Precond_solver : DEFAULT
  stepsize       :    0.15000000                  energy_gap     :    0.08000000
  eps_taylor     :   0.10000E-15                  max_taylor     :             4
  ----------------------------------- OT ---------------------------------------

  Step     Update method      Time    Convergence         Total energy    Change
  ------------------------------------------------------------------------------
     1 OT DIIS     0.15E+00    5.9     0.00011635       -34.4476481446 -3.44E+01
     2 OT DIIS     0.15E+00    6.9     0.00004545       -34.4476486313 -4.87E-07
     3 OT DIIS     0.15E+00    6.9     0.00002354       -34.4476487040 -7.26E-08
     4 OT DIIS     0.15E+00    6.9     0.00000253       -34.4476487152 -1.12E-08
     5 OT DIIS     0.15E+00    6.9     0.00000071       -34.4476487154 -1.79E-10

  *** SCF run converged in     5 steps ***


  Electronic density on regular grids:        -15.9999998821        0.0000001179
  Core density on regular grids:               15.9999999995       -0.0000000005
  Total charge density on r-space grids:        0.0000001174
  Total charge density g-space grids:           0.0000001173

  Overlap energy of the core charge distribution:               0.00000009114930
  Self energy of the core charge distribution:                -88.69430999347530
  Core Hamiltonian energy:                                     25.77019448503455
  Hartree energy:                                              36.92662009902188
  Exchange-correlation energy:                                 -8.44945373548239
  Dispersion energy:                                           -0.00069966159986

  Total energy:                                               -34.44764871535182

  outer SCF iter =    1 RMS gradient =   0.71E-06 energy =        -34.4476487154
  outer SCF loop converged in   1 iterations or    5 steps


 MOMENTS
  The electric/magnetic moments are written to file:
  water_dimer_dipole.out


 ENERGY| Total FORCE_EVAL ( QS ) energy (a.u.):              -34.447648715362291


 Temperature scaled to requested temperature:    240.03 K  ->    240.03 K
 MD| Old VCOM =     0.0000007039   -0.0000002810    0.0000015782 a.u.
 MD| New VCOM =     0.0000000000    0.0000000000    0.0000000000 a.u
 MD| Old VANG =    -0.0000001809    0.0000011211    0.0000001644 a.u.
 MD| New VANG =     0.0000000000   -0.0000000000   -0.0000000000 a.u

 *******************************************************************************
 ENSEMBLE TYPE                =                                              NVT
 STEP NUMBER                  =                                                4
 TIME [fs]                    =                                         2.000000
 CONSERVED QUANTITY [hartree] =                              -0.344421785248E+02

                                              INSTANTANEOUS             AVERAGES
 CPU TIME [s]                 =                       41.73                84.11
 ENERGY DRIFT PER ATOM [K]    =          0.697294507624E+00   0.438121760516E+00
 POTENTIAL ENERGY[hartree]    =         -0.344476487154E+02  -0.344478211505E+02
 KINETIC ENERGY [hartree]     =          0.456082921265E-02   0.511265165261E-02
 TEMPERATURE [K]              =                     240.032              269.074
 *******************************************************************************


 Number of electrons:                                                         16
 Number of occupied orbitals:                                                  8
 Number of molecular orbitals:                                                 8

 Number of orbital functions:                                                 46
 Number of independent orbital functions:                                     46

 Extrapolation method: ASPC


 SCF WAVEFUNCTION OPTIMIZATION

  ----------------------------------- OT ---------------------------------------
  Minimizer      : DIIS                : direct inversion
                                         in the iterative subspace
                                         using   7 DIIS vectors
                                         safer DIIS on
  Preconditioner : FULL_ALL            : diagonalization, state selective
  Precond_solver : DEFAULT
  stepsize       :    0.15000000                  energy_gap     :    0.08000000
  eps_taylor     :   0.10000E-15                  max_taylor     :             4
  ----------------------------------- OT ---------------------------------------

  Step     Update method      Time    Convergence         Total energy    Change
  ------------------------------------------------------------------------------
     1 OT DIIS     0.15E+00    5.9     0.00013741       -34.4475799268 -3.44E+01
     2 OT DIIS     0.15E+00    7.0     0.00005603       -34.4475806078 -6.81E-07
     3 OT DIIS     0.15E+00    6.8     0.00003111       -34.4475807143 -1.06E-07
     4 OT DIIS     0.15E+00    7.0     0.00000252       -34.4475807339 -1.96E-08
     5 OT DIIS     0.15E+00    6.9     0.00000093       -34.4475807341 -1.70E-10

  *** SCF run converged in     5 steps ***


  Electronic density on regular grids:        -15.9999998889        0.0000001111
  Core density on regular grids:               15.9999999995       -0.0000000005
  Total charge density on r-space grids:        0.0000001106
  Total charge density g-space grids:           0.0000001106

  Overlap energy of the core charge distribution:               0.00000007794674
  Self energy of the core charge distribution:                -88.69430999347530
  Core Hamiltonian energy:                                     25.74417865490952
  Hartree energy:                                              36.94552405371907
  Exchange-correlation energy:                                 -8.44227682275149
  Dispersion energy:                                           -0.00069670441121

  Total energy:                                               -34.44758073406268

  outer SCF iter =    1 RMS gradient =   0.93E-06 energy =        -34.4475807341
  outer SCF loop converged in   1 iterations or    5 steps


 MOMENTS
  The electric/magnetic moments are written to file:
  water_dimer_dipole.out


 ENERGY| Total FORCE_EVAL ( QS ) energy (a.u.):              -34.447580734090579


 *******************************************************************************
 ENSEMBLE TYPE                =                                              NVT
 STEP NUMBER                  =                                                5
 TIME [fs]                    =                                         2.500000
 CONSERVED QUANTITY [hartree] =                              -0.344421812520E+02

                                              INSTANTANEOUS             AVERAGES
 CPU TIME [s]                 =                       41.83                75.66
 ENERGY DRIFT PER ATOM [K]    =          0.553762535034E+00   0.461249915420E+00
 POTENTIAL ENERGY[hartree]    =         -0.344475807341E+02  -0.344477730672E+02
 KINETIC ENERGY [hartree]     =          0.457007422131E-02   0.500413616635E-02
 TEMPERATURE [K]              =                     240.519              263.363
 *******************************************************************************


 Number of electrons:                                                         16
 Number of occupied orbitals:                                                  8
 Number of molecular orbitals:                                                 8

 Number of orbital functions:                                                 46
 Number of independent orbital functions:                                     46

 Extrapolation method: ASPC


 SCF WAVEFUNCTION OPTIMIZATION

  ----------------------------------- OT ---------------------------------------
  Minimizer      : DIIS                : direct inversion
                                         in the iterative subspace
                                         using   7 DIIS vectors
                                         safer DIIS on
  Preconditioner : FULL_ALL            : diagonalization, state selective
  Precond_solver : DEFAULT
  stepsize       :    0.15000000                  energy_gap     :    0.08000000
  eps_taylor     :   0.10000E-15                  max_taylor     :             4
  ----------------------------------- OT ---------------------------------------

  Step     Update method      Time    Convergence         Total energy    Change
  ------------------------------------------------------------------------------
     1 OT DIIS     0.15E+00    6.0     0.00010328       -34.4475202521 -3.44E+01
     2 OT DIIS     0.15E+00    7.0     0.00003971       -34.4475206508 -3.99E-07
     3 OT DIIS     0.15E+00    6.8     0.00001475       -34.4475207162 -6.54E-08
     4 OT DIIS     0.15E+00    6.7     0.00000234       -34.4475207200 -3.77E-09
     5 OT DIIS     0.15E+00    6.8     0.00000041       -34.4475207201 -1.26E-10

  *** SCF run converged in     5 steps ***


  Electronic density on regular grids:        -15.9999998960        0.0000001040
  Core density on regular grids:               15.9999999995       -0.0000000005
  Total charge density on r-space grids:        0.0000001035
  Total charge density g-space grids:           0.0000001035

  Overlap energy of the core charge distribution:               0.00000006469905
  Self energy of the core charge distribution:                -88.69430999347530
  Core Hamiltonian energy:                                     25.71837223378886
  Hartree energy:                                              36.96426686033955
  Exchange-correlation energy:                                 -8.43515597758900
  Dispersion energy:                                           -0.00069390788572

  Total energy:                                               -34.44752072012256

  outer SCF iter =    1 RMS gradient =   0.41E-06 energy =        -34.4475207201
  outer SCF loop converged in   1 iterations or    5 steps


 MOMENTS
  The electric/magnetic moments are written to file:
  water_dimer_dipole.out


 ENERGY| Total FORCE_EVAL ( QS ) energy (a.u.):              -34.447520720127407


 Temperature scaled to requested temperature:    256.30 K  ->    256.31 K
 MD| Old VCOM =     0.0000009316   -0.0000003306    0.0000014361 a.u.
 MD| New VCOM =    -0.0000000000   -0.0000000000    0.0000000000 a.u
 MD| Old VANG =    -0.0000002515    0.0000010620    0.0000001852 a.u.
 MD| New VANG =    -0.0000000000   -0.0000000000   -0.0000000000 a.u

 *******************************************************************************
 ENSEMBLE TYPE                =                                              NVT
 STEP NUMBER                  =                                                6
 TIME [fs]                    =                                         3.000000
 CONSERVED QUANTITY [hartree] =                              -0.344421847241E+02

                                              INSTANTANEOUS             AVERAGES
 CPU TIME [s]                 =                       41.83                70.02
 ENERGY DRIFT PER ATOM [K]    =          0.371032749967E+00   0.446213721178E+00
 POTENTIAL ENERGY[hartree]    =         -0.344475207201E+02  -0.344477310094E+02
 KINETIC ENERGY [hartree]     =          0.487003098586E-02   0.498178530294E-02
 TEMPERATURE [K]              =                     256.305              262.187
 *******************************************************************************


 Number of electrons:                                                         16
 Number of occupied orbitals:                                                  8
 Number of molecular orbitals:                                                 8

 Number of orbital functions:                                                 46
 Number of independent orbital functions:                                     46

 Extrapolation method: ASPC


 SCF WAVEFUNCTION OPTIMIZATION

  ----------------------------------- OT ---------------------------------------
  Minimizer      : DIIS                : direct inversion
                                         in the iterative subspace
                                         using   7 DIIS vectors
                                         safer DIIS on
  Preconditioner : FULL_ALL            : diagonalization, state selective
  Precond_solver : DEFAULT
  stepsize       :    0.15000000                  energy_gap     :    0.08000000
  eps_taylor     :   0.10000E-15                  max_taylor     :             4
  ----------------------------------- OT ---------------------------------------

  Step     Update method      Time    Convergence         Total energy    Change
  ------------------------------------------------------------------------------
     1 OT DIIS     0.15E+00    5.9     0.00015359       -34.4474170700 -3.44E+01
     2 OT DIIS     0.15E+00    6.9     0.00007677       -34.4474177883 -7.18E-07
     3 OT DIIS     0.15E+00    6.9     0.00003777       -34.4474179201 -1.32E-07
     4 OT DIIS     0.15E+00    6.9     0.00000203       -34.4474179611 -4.10E-08
     5 OT DIIS     0.15E+00    7.0     0.00000121       -34.4474179612 -9.61E-11
     6 OT DIIS     0.15E+00    7.1     0.00000023       -34.4474179612 -2.54E-11

  *** SCF run converged in     6 steps ***


  Electronic density on regular grids:        -15.9999999032        0.0000000968
  Core density on regular grids:               15.9999999995       -0.0000000005
  Total charge density on r-space grids:        0.0000000963
  Total charge density g-space grids:           0.0000000962

  Overlap energy of the core charge distribution:               0.00000005427258
  Self energy of the core charge distribution:                -88.69430999347530
  Core Hamiltonian energy:                                     25.69695370082081
  Hartree energy:                                              36.97987381560126
  Exchange-correlation energy:                                 -8.42924401753385
  Dispersion energy:                                           -0.00069152093454

  Total energy:                                               -34.44741796124904

  outer SCF iter =    1 RMS gradient =   0.23E-06 energy =        -34.4474179612
  outer SCF loop converged in   1 iterations or    6 steps


 MOMENTS
  The electric/magnetic moments are written to file:
  water_dimer_dipole.out


 ENERGY| Total FORCE_EVAL ( QS ) energy (a.u.):              -34.447417961250991


 *******************************************************************************
 ENSEMBLE TYPE                =                                              NVT
 STEP NUMBER                  =                                                7
 TIME [fs]                    =                                         3.500000
 CONSERVED QUANTITY [hartree] =                              -0.344421869623E+02

                                              INSTANTANEOUS             AVERAGES
 CPU TIME [s]                 =                       48.97                67.01
 ENERGY DRIFT PER ATOM [K]    =          0.253237257882E+00   0.418645654993E+00
 POTENTIAL ENERGY[hartree]    =         -0.344474179613E+02  -0.344476862882E+02
 KINETIC ENERGY [hartree]     =          0.419470994276E-02   0.486934596577E-02
 TEMPERATURE [K]              =                     220.764              256.269
 *******************************************************************************


 Number of electrons:                                                         16
 Number of occupied orbitals:                                                  8
 Number of molecular orbitals:                                                 8

 Number of orbital functions:                                                 46
 Number of independent orbital functions:                                     46

 Extrapolation method: ASPC


 SCF WAVEFUNCTION OPTIMIZATION

  ----------------------------------- OT ---------------------------------------
  Minimizer      : DIIS                : direct inversion
                                         in the iterative subspace
                                         using   7 DIIS vectors
                                         safer DIIS on
  Preconditioner : FULL_ALL            : diagonalization, state selective
  Precond_solver : DEFAULT
  stepsize       :    0.15000000                  energy_gap     :    0.08000000
  eps_taylor     :   0.10000E-15                  max_taylor     :             4
  ----------------------------------- OT ---------------------------------------

  Step     Update method      Time    Convergence         Total energy    Change
  ------------------------------------------------------------------------------
     1 OT DIIS     0.15E+00    5.9     0.00010882       -34.4472605010 -3.44E+01
     2 OT DIIS     0.15E+00    6.9     0.00005814       -34.4472608243 -3.23E-07
     3 OT DIIS     0.15E+00    6.8     0.00002442       -34.4472608924 -6.80E-08
     4 OT DIIS     0.15E+00    6.8     0.00000144       -34.4472609113 -1.89E-08
     5 OT DIIS     0.15E+00    6.9     0.00000080       -34.4472609114 -6.25E-11

  *** SCF run converged in     5 steps ***


  Electronic density on regular grids:        -15.9999999100        0.0000000900
  Core density on regular grids:               15.9999999995       -0.0000000005
  Total charge density on r-space grids:        0.0000000895
  Total charge density g-space grids:           0.0000000895

  Overlap energy of the core charge distribution:               0.00000004795688
  Self energy of the core charge distribution:                -88.69430999347530
  Core Hamiltonian energy:                                     25.68303884610249
  Hartree energy:                                              36.99011294395184
  Exchange-correlation energy:                                 -8.42541303511639
  Dispersion energy:                                           -0.00068972077696

  Total energy:                                               -34.44726091135745

  outer SCF iter =    1 RMS gradient =   0.80E-06 energy =        -34.4472609114
  outer SCF loop converged in   1 iterations or    5 steps


 MOMENTS
  The electric/magnetic moments are written to file:
  water_dimer_dipole.out


 ENERGY| Total FORCE_EVAL ( QS ) energy (a.u.):              -34.447260911371785


 Temperature scaled to requested temperature:    198.96 K  ->    198.97 K
 MD| Old VCOM =     0.0000008841   -0.0000003123    0.0000010321 a.u.
 MD| New VCOM =     0.0000000000    0.0000000000    0.0000000000 a.u

 *******************************************************************************
 ENSEMBLE TYPE                =                                              NVT
 STEP NUMBER                  =                                                8
 TIME [fs]                    =                                         4.000000
 CONSERVED QUANTITY [hartree] =                              -0.344421868815E+02

                                              INSTANTANEOUS             AVERAGES
 CPU TIME [s]                 =                       41.75                63.85
 ENERGY DRIFT PER ATOM [K]    =          0.257490444047E+00   0.398501253624E+00
 POTENTIAL ENERGY[hartree]    =         -0.344472609114E+02  -0.344476331161E+02
 KINETIC ENERGY [hartree]     =          0.378056188976E-02   0.473324795627E-02
 TEMPERATURE [K]              =                     198.968              249.107
 *******************************************************************************


 Number of electrons:                                                         16
 Number of occupied orbitals:                                                  8
 Number of molecular orbitals:                                                 8

 Number of orbital functions:                                                 46
 Number of independent orbital functions:                                     46

 Extrapolation method: ASPC


 SCF WAVEFUNCTION OPTIMIZATION

  ----------------------------------- OT ---------------------------------------
  Minimizer      : DIIS                : direct inversion
                                         in the iterative subspace
                                         using   7 DIIS vectors
                                         safer DIIS on
  Preconditioner : FULL_ALL            : diagonalization, state selective
  Precond_solver : DEFAULT
  stepsize       :    0.15000000                  energy_gap     :    0.08000000
  eps_taylor     :   0.10000E-15                  max_taylor     :             4
  ----------------------------------- OT ---------------------------------------

  Step     Update method      Time    Convergence         Total energy    Change
  ------------------------------------------------------------------------------
     1 OT DIIS     0.15E+00    6.1     0.00010746       -34.4470401225 -3.44E+01
     2 OT DIIS     0.15E+00    6.8     0.00004892       -34.4470405045 -3.82E-07
     3 OT DIIS     0.15E+00    6.8     0.00002753       -34.4470405653 -6.08E-08
     4 OT DIIS     0.15E+00    6.9     0.00000156       -34.4470405839 -1.86E-08
     5 OT DIIS     0.15E+00    6.9     0.00000074       -34.4470405840 -7.50E-11

  *** SCF run converged in     5 steps ***


  Electronic density on regular grids:        -15.9999999165        0.0000000835
  Core density on regular grids:               15.9999999996       -0.0000000004
  Total charge density on r-space grids:        0.0000000831
  Total charge density g-space grids:           0.0000000830

  Overlap energy of the core charge distribution:               0.00000004549542
  Self energy of the core charge distribution:                -88.69430999347530
  Core Hamiltonian energy:                                     25.67707603939363
  Hartree energy:                                              36.99467955706510
  Exchange-correlation energy:                                 -8.42379781288308
  Dispersion energy:                                           -0.00068841958274

  Total energy:                                               -34.44704058398697

  outer SCF iter =    1 RMS gradient =   0.74E-06 energy =        -34.4470405840
  outer SCF loop converged in   1 iterations or    5 steps


 MOMENTS
  The electric/magnetic moments are written to file:
  water_dimer_dipole.out


 ENERGY| Total FORCE_EVAL ( QS ) energy (a.u.):              -34.447040583993314

 MD| Old VANG =    -0.0000004041    0.0000013221    0.0000002818 a.u.
 MD| New VANG =     0.0000000000    0.0000000000    0.0000000000 a.u

 *******************************************************************************
 ENSEMBLE TYPE                =                                              NVT
 STEP NUMBER                  =                                                9
 TIME [fs]                    =                                         4.500000
 CONSERVED QUANTITY [hartree] =                              -0.344421853855E+02

                                              INSTANTANEOUS             AVERAGES
 CPU TIME [s]                 =                       41.83                61.41
 ENERGY DRIFT PER ATOM [K]    =          0.336221436530E+00   0.391581273947E+00
 POTENTIAL ENERGY[hartree]    =         -0.344470405840E+02  -0.344475672792E+02
 KINETIC ENERGY [hartree]     =          0.370612773756E-02   0.461912348752E-02
 TEMPERATURE [K]              =                     195.050              243.100
 *******************************************************************************


 Number of electrons:                                                         16
 Number of occupied orbitals:                                                  8
 Number of molecular orbitals:                                                 8

 Number of orbital functions:                                                 46
 Number of independent orbital functions:                                     46

 Extrapolation method: ASPC


 SCF WAVEFUNCTION OPTIMIZATION

  ----------------------------------- OT ---------------------------------------
  Minimizer      : DIIS                : direct inversion
                                         in the iterative subspace
                                         using   7 DIIS vectors
                                         safer DIIS on
  Preconditioner : FULL_ALL            : diagonalization, state selective
  Precond_solver : DEFAULT
  stepsize       :    0.15000000                  energy_gap     :    0.08000000
  eps_taylor     :   0.10000E-15                  max_taylor     :             4
  ----------------------------------- OT ---------------------------------------

  Step     Update method      Time    Convergence         Total energy    Change
  ------------------------------------------------------------------------------
     1 OT DIIS     0.15E+00    5.9     0.00020695       -34.4468012384 -3.44E+01
     2 OT DIIS     0.15E+00    6.8     0.00009583       -34.4468026561 -1.42E-06
     3 OT DIIS     0.15E+00    6.9     0.00005325       -34.4468028892 -2.33E-07
     4 OT DIIS     0.15E+00    7.0     0.00000214       -34.4468029601 -7.09E-08
     5 OT DIIS     0.15E+00    6.8     0.00000058       -34.4468029603 -1.80E-10

  *** SCF run converged in     5 steps ***


  Electronic density on regular grids:        -15.9999999220        0.0000000780
  Core density on regular grids:               15.9999999996       -0.0000000004
  Total charge density on r-space grids:        0.0000000776
  Total charge density g-space grids:           0.0000000776

  Overlap energy of the core charge distribution:               0.00000004699222
  Self energy of the core charge distribution:                -88.69430999347530
  Core Hamiltonian energy:                                     25.68007423216990
  Hartree energy:                                              36.99280570394006
  Exchange-correlation energy:                                 -8.42468521027894
  Dispersion energy:                                           -0.00068773965503

  Total energy:                                               -34.44680296030709

  outer SCF iter =    1 RMS gradient =   0.58E-06 energy =        -34.4468029603
  outer SCF loop converged in   1 iterations or    5 steps


 MOMENTS
  The electric/magnetic moments are written to file:
  water_dimer_dipole.out


 ENERGY| Total FORCE_EVAL ( QS ) energy (a.u.):              -34.446802960323126


 Temperature scaled to requested temperature:    188.52 K  ->    188.53 K
 MD| Old VCOM =     0.0000008733   -0.0000003220    0.0000007099 a.u.
 MD| New VCOM =     0.0000000000    0.0000000000    0.0000000000 a.u

 *******************************************************************************
 ENSEMBLE TYPE                =                                              NVT
 STEP NUMBER                  =                                               10
 TIME [fs]                    =                                         5.000000
 CONSERVED QUANTITY [hartree] =                              -0.344421837398E+02

                                              INSTANTANEOUS             AVERAGES
 CPU TIME [s]                 =                       41.85                59.45
 ENERGY DRIFT PER ATOM [K]    =          0.422832747225E+00   0.394706421275E+00
 POTENTIAL ENERGY[hartree]    =         -0.344468029603E+02  -0.344474908473E+02
 KINETIC ENERGY [hartree]     =          0.358216162320E-02   0.451542730109E-02
 TEMPERATURE [K]              =                     188.526              237.643
 *******************************************************************************


 Number of electrons:                                                         16
 Number of occupied orbitals:                                                  8
 Number of molecular orbitals:                                                 8

 Number of orbital functions:                                                 46
 Number of independent orbital functions:                                     46

 Extrapolation method: ASPC


 SCF WAVEFUNCTION OPTIMIZATION

  ----------------------------------- OT ---------------------------------------
  Minimizer      : DIIS                : direct inversion
                                         in the iterative subspace
                                         using   7 DIIS vectors
                                         safer DIIS on
  Preconditioner : FULL_ALL            : diagonalization, state selective
  Precond_solver : DEFAULT
  stepsize       :    0.15000000                  energy_gap     :    0.08000000
  eps_taylor     :   0.10000E-15                  max_taylor     :             4
  ----------------------------------- OT ---------------------------------------

  Step     Update method      Time    Convergence         Total energy    Change
  ------------------------------------------------------------------------------
     1 OT DIIS     0.15E+00    6.2     0.00012519       -34.4465671988 -3.44E+01
     2 OT DIIS     0.15E+00    7.0     0.00005608       -34.4465677330 -5.34E-07
     3 OT DIIS     0.15E+00    6.9     0.00003229       -34.4465678187 -8.57E-08
     4 OT DIIS     0.15E+00    6.8     0.00000133       -34.4465678433 -2.47E-08
     5 OT DIIS     0.15E+00    7.0     0.00000046       -34.4465678434 -6.84E-11

  *** SCF run converged in     5 steps ***


  Electronic density on regular grids:        -15.9999999266        0.0000000734
  Core density on regular grids:               15.9999999996       -0.0000000004
  Total charge density on r-space grids:        0.0000000730
  Total charge density g-space grids:           0.0000000730

  Overlap energy of the core charge distribution:               0.00000005226784
  Self energy of the core charge distribution:                -88.69430999347530
  Core Hamiltonian energy:                                     25.69168539101423
  Hartree energy:                                              36.98473425260075
  Exchange-correlation energy:                                 -8.42798997097908
  Dispersion energy:                                           -0.00068757482439

  Total energy:                                               -34.44656784339595

  outer SCF iter =    1 RMS gradient =   0.46E-06 energy =        -34.4465678434
  outer SCF loop converged in   1 iterations or    5 steps


 MOMENTS
  The electric/magnetic moments are written to file:
  water_dimer_dipole.out


 ENERGY| Total FORCE_EVAL ( QS ) energy (a.u.):              -34.446567843400210


 *******************************************************************************
 ENSEMBLE TYPE                =                                              NVT
 STEP NUMBER                  =                                               11
 TIME [fs]                    =                                         5.500000
 CONSERVED QUANTITY [hartree] =                              -0.344421812617E+02

                                              INSTANTANEOUS             AVERAGES
 CPU TIME [s]                 =                       42.20                57.88
 ENERGY DRIFT PER ATOM [K]    =          0.553256585420E+00   0.409120072561E+00
 POTENTIAL ENERGY[hartree]    =         -0.344465678434E+02  -0.344474069379E+02
 KINETIC ENERGY [hartree]     =          0.347021927219E-02   0.442040838937E-02
 TEMPERATURE [K]              =                     182.635              232.642
 *******************************************************************************


 Number of electrons:                                                         16
 Number of occupied orbitals:                                                  8
 Number of molecular orbitals:                                                 8

 Number of orbital functions:                                                 46
 Number of independent orbital functions:                                     46

 Extrapolation method: ASPC


 SCF WAVEFUNCTION OPTIMIZATION

  ----------------------------------- OT ---------------------------------------
  Minimizer      : DIIS                : direct inversion
                                         in the iterative subspace
                                         using   7 DIIS vectors
                                         safer DIIS on
  Preconditioner : FULL_ALL            : diagonalization, state selective
  Precond_solver : DEFAULT
  stepsize       :    0.15000000                  energy_gap     :    0.08000000
  eps_taylor     :   0.10000E-15                  max_taylor     :             4
  ----------------------------------- OT ---------------------------------------

  Step     Update method      Time    Convergence         Total energy    Change
  ------------------------------------------------------------------------------
     1 OT DIIS     0.15E+00    6.0     0.00013432       -34.4463670381 -3.44E+01
     2 OT DIIS     0.15E+00    6.9     0.00005892       -34.4463676538 -6.16E-07
     3 OT DIIS     0.15E+00    6.9     0.00003392       -34.4463677493 -9.55E-08
     4 OT DIIS     0.15E+00    6.9     0.00000184       -34.4463677759 -2.66E-08
     5 OT DIIS     0.15E+00    7.1     0.00000065       -34.4463677761 -1.30E-10

  *** SCF run converged in     5 steps ***


  Electronic density on regular grids:        -15.9999999300        0.0000000700
  Core density on regular grids:               15.9999999996       -0.0000000004
  Total charge density on r-space grids:        0.0000000695
  Total charge density g-space grids:           0.0000000695

  Overlap energy of the core charge distribution:               0.00000006095167
  Self energy of the core charge distribution:                -88.69430999347530
  Core Hamiltonian energy:                                     25.71053413840628
  Hartree energy:                                              36.97142812029956
  Exchange-correlation energy:                                 -8.43333226898721
  Dispersion energy:                                           -0.00068783326055

  Total energy:                                               -34.44636777606553

  outer SCF iter =    1 RMS gradient =   0.65E-06 energy =        -34.4463677761
  outer SCF loop converged in   1 iterations or    5 steps


 MOMENTS
  The electric/magnetic moments are written to file:
  water_dimer_dipole.out


 ENERGY| Total FORCE_EVAL ( QS ) energy (a.u.):              -34.446367776072734

 MD| Old VANG =    -0.0000004386    0.0000012420    0.0000003024 a.u.
 MD| New VANG =     0.0000000000   -0.0000000000    0.0000000000 a.u

 *******************************************************************************
 ENSEMBLE TYPE                =                                              NVT
 STEP NUMBER                  =                                               12
 TIME [fs]                    =                                         6.000000
 CONSERVED QUANTITY [hartree] =                              -0.344421784671E+02

                                              INSTANTANEOUS             AVERAGES
 CPU TIME [s]                 =                       42.20                56.58
 ENERGY DRIFT PER ATOM [K]    =          0.700333653522E+00   0.433387870974E+00
 POTENTIAL ENERGY[hartree]    =         -0.344463677761E+02  -0.344473203410E+02
 KINETIC ENERGY [hartree]     =          0.315163443415E-02   0.431467722644E-02
 TEMPERATURE [K]              =                     165.868              227.078
 *******************************************************************************


 Number of electrons:                                                         16
 Number of occupied orbitals:                                                  8
 Number of molecular orbitals:                                                 8

 Number of orbital functions:                                                 46
 Number of independent orbital functions:                                     46

 Extrapolation method: ASPC


 SCF WAVEFUNCTION OPTIMIZATION

  ----------------------------------- OT ---------------------------------------
  Minimizer      : DIIS                : direct inversion
                                         in the iterative subspace
                                         using   7 DIIS vectors
                                         safer DIIS on
  Preconditioner : FULL_ALL            : diagonalization, state selective
  Precond_solver : DEFAULT
  stepsize       :    0.15000000                  energy_gap     :    0.08000000
  eps_taylor     :   0.10000E-15                  max_taylor     :             4
  ----------------------------------- OT ---------------------------------------

  Step     Update method      Time    Convergence         Total energy    Change
  ------------------------------------------------------------------------------
     1 OT DIIS     0.15E+00    6.1     0.00011639       -34.4462526335 -3.44E+01
     2 OT DIIS     0.15E+00    6.9     0.00004402       -34.4462531371 -5.04E-07
     3 OT DIIS     0.15E+00    6.8     0.00001516       -34.4462532181 -8.09E-08
     4 OT DIIS     0.15E+00    6.8     0.00000299       -34.4462532222 -4.19E-09
     5 OT DIIS     0.15E+00    6.9     0.00000056       -34.4462532225 -2.03E-10

  *** SCF run converged in     5 steps ***


  Electronic density on regular grids:        -15.9999999325        0.0000000675
  Core density on regular grids:               15.9999999995       -0.0000000005
  Total charge density on r-space grids:        0.0000000670
  Total charge density g-space grids:           0.0000000670

  Overlap energy of the core charge distribution:               0.00000007153619
  Self energy of the core charge distribution:                -88.69430999347530
  Core Hamiltonian energy:                                     25.73347307712856
  Hartree energy:                                              36.95510267263611
  Exchange-correlation energy:                                 -8.43983070535567
  Dispersion energy:                                           -0.00068834492007

  Total energy:                                               -34.44625322245018

  outer SCF iter =    1 RMS gradient =   0.56E-06 energy =        -34.4462532225
  outer SCF loop converged in   1 iterations or    5 steps


 MOMENTS
  The electric/magnetic moments are written to file:
  water_dimer_dipole.out


 ENERGY| Total FORCE_EVAL ( QS ) energy (a.u.):              -34.446253222461664


 Temperature scaled to requested temperature:    183.77 K  ->    183.78 K
 MD| Old VCOM =     0.0000011639   -0.0000004891    0.0000005730 a.u.
 MD| New VCOM =     0.0000000000   -0.0000000000    0.0000000000 a.u

 *******************************************************************************
 ENSEMBLE TYPE                =                                              NVT
 STEP NUMBER                  =                                               13
 TIME [fs]                    =                                         6.500000
 CONSERVED QUANTITY [hartree] =                              -0.344421767162E+02

                                              INSTANTANEOUS             AVERAGES
 CPU TIME [s]                 =                       41.74                55.44
 ENERGY DRIFT PER ATOM [K]    =          0.792481118659E+00   0.461010428488E+00
 POTENTIAL ENERGY[hartree]    =         -0.344462532225E+02  -0.344472382550E+02
 KINETIC ENERGY [hartree]     =          0.349192376338E-02   0.425138849851E-02
 TEMPERATURE [K]              =                     183.777              223.747
 *******************************************************************************


 Number of electrons:                                                         16
 Number of occupied orbitals:                                                  8
 Number of molecular orbitals:                                                 8

 Number of orbital functions:                                                 46
 Number of independent orbital functions:                                     46

 Extrapolation method: ASPC


 SCF WAVEFUNCTION OPTIMIZATION

  ----------------------------------- OT ---------------------------------------
  Minimizer      : DIIS                : direct inversion
                                         in the iterative subspace
                                         using   7 DIIS vectors
                                         safer DIIS on
  Preconditioner : FULL_ALL            : diagonalization, state selective
  Precond_solver : DEFAULT
  stepsize       :    0.15000000                  energy_gap     :    0.08000000
  eps_taylor     :   0.10000E-15                  max_taylor     :             4
  ----------------------------------- OT ---------------------------------------

  Step     Update method      Time    Convergence         Total energy    Change
  ------------------------------------------------------------------------------
     1 OT DIIS     0.15E+00    6.1     0.00019721       -34.4462324860 -3.44E+01
     2 OT DIIS     0.15E+00    6.8     0.00008537       -34.4462338671 -1.38E-06
     3 OT DIIS     0.15E+00    7.0     0.00004914       -34.4462340919 -2.25E-07
     4 OT DIIS     0.15E+00    6.9     0.00000172       -34.4462341448 -5.30E-08
     5 OT DIIS     0.15E+00    6.9     0.00000059       -34.4462341449 -1.12E-10

  *** SCF run converged in     5 steps ***


  Electronic density on regular grids:        -15.9999999341        0.0000000659
  Core density on regular grids:               15.9999999995       -0.0000000005
  Total charge density on r-space grids:        0.0000000654
  Total charge density g-space grids:           0.0000000654

  Overlap energy of the core charge distribution:               0.00000008391125
  Self energy of the core charge distribution:                -88.69430999347530
  Core Hamiltonian energy:                                     25.76099578748360
  Hartree energy:                                              36.93539798002062
  Exchange-correlation energy:                                 -8.44762901300214
  Dispersion energy:                                           -0.00068898987077

  Total energy:                                               -34.44623414493275

  outer SCF iter =    1 RMS gradient =   0.59E-06 energy =        -34.4462341449
  outer SCF loop converged in   1 iterations or    5 steps


 MOMENTS
  The electric/magnetic moments are written to file:
  water_dimer_dipole.out


 ENERGY| Total FORCE_EVAL ( QS ) energy (a.u.):              -34.446234144934870


 *******************************************************************************
 ENSEMBLE TYPE                =                                              NVT
 STEP NUMBER                  =                                               14
 TIME [fs]                    =                                         7.000000
 CONSERVED QUANTITY [hartree] =                              -0.344421759792E+02

                                              INSTANTANEOUS             AVERAGES
 CPU TIME [s]                 =                       42.02                54.48
 ENERGY DRIFT PER ATOM [K]    =          0.831266761654E+00   0.487457309429E+00
 POTENTIAL ENERGY[hartree]    =         -0.344462341449E+02  -0.344471665329E+02
 KINETIC ENERGY [hartree]     =          0.387253369063E-02   0.422432744080E-02
 TEMPERATURE [K]              =                     203.808              222.323
 *******************************************************************************


 Number of electrons:                                                         16
 Number of occupied orbitals:                                                  8
 Number of molecular orbitals:                                                 8

 Number of orbital functions:                                                 46
 Number of independent orbital functions:                                     46

 Extrapolation method: ASPC


 SCF WAVEFUNCTION OPTIMIZATION

  ----------------------------------- OT ---------------------------------------
  Minimizer      : DIIS                : direct inversion
                                         in the iterative subspace
                                         using   7 DIIS vectors
                                         safer DIIS on
  Preconditioner : FULL_ALL            : diagonalization, state selective
  Precond_solver : DEFAULT
  stepsize       :    0.15000000                  energy_gap     :    0.08000000
  eps_taylor     :   0.10000E-15                  max_taylor     :             4
  ----------------------------------- OT ---------------------------------------

  Step     Update method      Time    Convergence         Total energy    Change
  ------------------------------------------------------------------------------
     1 OT DIIS     0.15E+00    6.0     0.00024693       -34.4463103264 -3.44E+01
     2 OT DIIS     0.15E+00    6.8     0.00010503       -34.4463123913 -2.06E-06
     3 OT DIIS     0.15E+00    6.8     0.00005959       -34.4463126976 -3.06E-07
     4 OT DIIS     0.15E+00    6.9     0.00000419       -34.4463127807 -8.31E-08
     5 OT DIIS     0.15E+00    6.8     0.00000086       -34.4463127813 -6.64E-10

  *** SCF run converged in     5 steps ***


  Electronic density on regular grids:        -15.9999999346        0.0000000654
  Core density on regular grids:               15.9999999995       -0.0000000005
  Total charge density on r-space grids:        0.0000000649
  Total charge density g-space grids:           0.0000000649

  Overlap energy of the core charge distribution:               0.00000009456380
  Self energy of the core charge distribution:                -88.69430999347530
  Core Hamiltonian energy:                                     25.78626259187465
  Hartree energy:                                              36.91720882402150
  Exchange-correlation energy:                                 -8.45478484024220
  Dispersion energy:                                           -0.00068945806527

  Total energy:                                               -34.44631278132282

  outer SCF iter =    1 RMS gradient =   0.86E-06 energy =        -34.4463127813
  outer SCF loop converged in   1 iterations or    5 steps


 MOMENTS
  The electric/magnetic moments are written to file:
  water_dimer_dipole.out


 ENERGY| Total FORCE_EVAL ( QS ) energy (a.u.):              -34.446312781340964

 MD| Old VANG =    -0.0000003207    0.0000012845    0.0000003149 a.u.
 MD| New VANG =     0.0000000000   -0.0000000000    0.0000000000 a.u

 *******************************************************************************
 ENSEMBLE TYPE                =                                              NVT
 STEP NUMBER                  =                                               15
 TIME [fs]                    =                                         7.500000
 CONSERVED QUANTITY [hartree] =                              -0.344421777207E+02

                                              INSTANTANEOUS             AVERAGES
 CPU TIME [s]                 =                       41.73                53.63
 ENERGY DRIFT PER ATOM [K]    =          0.739612497349E+00   0.504267655290E+00
 POTENTIAL ENERGY[hartree]    =         -0.344463127813E+02  -0.344471096161E+02
 KINETIC ENERGY [hartree]     =          0.391217354462E-02   0.420351718106E-02
 TEMPERATURE [K]              =                     205.894              221.227
 *******************************************************************************


 Number of electrons:                                                         16
 Number of occupied orbitals:                                                  8
 Number of molecular orbitals:                                                 8

 Number of orbital functions:                                                 46
 Number of independent orbital functions:                                     46

 Extrapolation method: ASPC


 SCF WAVEFUNCTION OPTIMIZATION

  ----------------------------------- OT ---------------------------------------
  Minimizer      : DIIS                : direct inversion
                                         in the iterative subspace
                                         using   7 DIIS vectors
                                         safer DIIS on
  Preconditioner : FULL_ALL            : diagonalization, state selective
  Precond_solver : DEFAULT
  stepsize       :    0.15000000                  energy_gap     :    0.08000000
  eps_taylor     :   0.10000E-15                  max_taylor     :             4
  ----------------------------------- OT ---------------------------------------

  Step     Update method      Time    Convergence         Total energy    Change
  ------------------------------------------------------------------------------
     1 OT DIIS     0.15E+00    6.0     0.00014759       -34.4464610226 -3.44E+01
     2 OT DIIS     0.15E+00    6.8     0.00005802       -34.4464618517 -8.29E-07
     3 OT DIIS     0.15E+00    6.9     0.00001444       -34.4464620003 -1.49E-07
     4 OT DIIS     0.15E+00    6.8     0.00000227       -34.4464620039 -3.55E-09
     5 OT DIIS     0.15E+00    7.0     0.00000045       -34.4464620040 -1.14E-10

  *** SCF run converged in     5 steps ***


  Electronic density on regular grids:        -15.9999999345        0.0000000655
  Core density on regular grids:               15.9999999995       -0.0000000005
  Total charge density on r-space grids:        0.0000000650
  Total charge density g-space grids:           0.0000000650

  Overlap energy of the core charge distribution:               0.00000010293932
  Self energy of the core charge distribution:                -88.69430999347530
  Core Hamiltonian energy:                                     25.80776012003449
  Hartree energy:                                              36.90163242459367
  Exchange-correlation energy:                                 -8.46085508713498
  Dispersion energy:                                           -0.00068957092561

  Total energy:                                               -34.44646200396842

  outer SCF iter =    1 RMS gradient =   0.45E-06 energy =        -34.4464620040
  outer SCF loop converged in   1 iterations or    5 steps


 MOMENTS
  The electric/magnetic moments are written to file:
  water_dimer_dipole.out


 ENERGY| Total FORCE_EVAL ( QS ) energy (a.u.):              -34.446462003970829


 *******************************************************************************
 ENSEMBLE TYPE                =                                              NVT
 STEP NUMBER                  =                                               16
 TIME [fs]                    =                                         8.000000
 CONSERVED QUANTITY [hartree] =                              -0.344421820869E+02

                                              INSTANTANEOUS             AVERAGES
 CPU TIME [s]                 =                       41.81                52.89
 ENERGY DRIFT PER ATOM [K]    =          0.509826806329E+00   0.504615102230E+00
 POTENTIAL ENERGY[hartree]    =         -0.344464620040E+02  -0.344470691403E+02
 KINETIC ENERGY [hartree]     =          0.430687681502E-02   0.420997715818E-02
 TEMPERATURE [K]              =                     226.667              221.567
 *******************************************************************************


 Number of electrons:                                                         16
 Number of occupied orbitals:                                                  8
 Number of molecular orbitals:                                                 8

 Number of orbital functions:                                                 46
 Number of independent orbital functions:                                     46

 Extrapolation method: ASPC


 SCF WAVEFUNCTION OPTIMIZATION

[...]

  outer SCF iter =    1 RMS gradient =   0.95E-06 energy =        -34.4433309265
  outer SCF loop converged in   1 iterations or    5 steps


 MOMENTS
  The electric/magnetic moments are written to file:
  water_dimer_dipole.out


 ENERGY| Total FORCE_EVAL ( QS ) energy (a.u.):              -34.443330926498760


 Temperature scaled to requested temperature:    250.56 K  ->    250.57 K
 MD| Old VCOM =     0.0000021253   -0.0000000286    0.0000001229 a.u.
 MD| New VCOM =    -0.0000000000    0.0000000000   -0.0000000000 a.u

 *******************************************************************************
 ENSEMBLE TYPE                =                                              NVT
 STEP NUMBER                  =                                              198
 TIME [fs]                    =                                        99.000000
 CONSERVED QUANTITY [hartree] =                              -0.344421898326E+02

                                              INSTANTANEOUS             AVERAGES
 CPU TIME [s]                 =                       59.84                60.84
 ENERGY DRIFT PER ATOM [K]    =          0.102173149957E+00   0.218780976856E+00
 POTENTIAL ENERGY[hartree]    =         -0.344433309265E+02  -0.344441246854E+02
 KINETIC ENERGY [hartree]     =          0.476103008245E-02   0.412928728051E-02
 TEMPERATURE [K]              =                     250.569              217.321
 *******************************************************************************


 Number of electrons:                                                         16
 Number of occupied orbitals:                                                  8
 Number of molecular orbitals:                                                 8

 Number of orbital functions:                                                 46
 Number of independent orbital functions:                                     46

 Extrapolation method: ASPC


 SCF WAVEFUNCTION OPTIMIZATION

  ----------------------------------- OT ---------------------------------------
  Minimizer      : DIIS                : direct inversion
                                         in the iterative subspace
                                         using   7 DIIS vectors
                                         safer DIIS on
  Preconditioner : FULL_ALL            : diagonalization, state selective
  Precond_solver : DEFAULT
  stepsize       :    0.15000000                  energy_gap     :    0.08000000
  eps_taylor     :   0.10000E-15                  max_taylor     :             4
  ----------------------------------- OT ---------------------------------------

  Step     Update method      Time    Convergence         Total energy    Change
  ------------------------------------------------------------------------------
     1 OT DIIS     0.15E+00   25.0     0.00012960       -34.4436383229 -3.44E+01
     2 OT DIIS     0.15E+00   12.2     0.00005930       -34.4436388617 -5.39E-07
     3 OT DIIS     0.15E+00    8.4     0.00003101       -34.4436389488 -8.71E-08
     4 OT DIIS     0.15E+00   12.8     0.00000178       -34.4436389744 -2.56E-08
     5 OT DIIS     0.15E+00    9.7     0.00000046       -34.4436389745 -1.26E-10

  *** SCF run converged in     5 steps ***


  Electronic density on regular grids:        -15.9999999267        0.0000000733
  Core density on regular grids:               15.9999999995       -0.0000000005
  Total charge density on r-space grids:        0.0000000727
  Total charge density g-space grids:           0.0000000727

  Overlap energy of the core charge distribution:               0.00000014496468
  Self energy of the core charge distribution:                -88.69430999347530
  Core Hamiltonian energy:                                     25.86173627324488
  Hartree energy:                                              36.86186672977851
  Exchange-correlation energy:                                 -8.47214355716270
  Dispersion energy:                                           -0.00078857186797

  Total energy:                                               -34.44363897451788

  outer SCF iter =    1 RMS gradient =   0.46E-06 energy =        -34.4436389745
  outer SCF loop converged in   1 iterations or    5 steps


 MOMENTS
  The electric/magnetic moments are written to file:
  water_dimer_dipole.out


 ENERGY| Total FORCE_EVAL ( QS ) energy (a.u.):              -34.443638974527282


 Temperature scaled to requested temperature:    259.05 K  ->    259.05 K
 MD| Old VCOM =     0.0000021981   -0.0000000947    0.0000000873 a.u.
 MD| New VCOM =     0.0000000000   -0.0000000000    0.0000000000 a.u
 MD| Old VANG =     0.0000000509   -0.0000003764    0.0000011055 a.u.
 MD| New VANG =     0.0000000000    0.0000000000   -0.0000000000 a.u

 *******************************************************************************
 ENSEMBLE TYPE                =                                              NVT
 STEP NUMBER                  =                                              199
 TIME [fs]                    =                                        99.500000
 CONSERVED QUANTITY [hartree] =                              -0.344421965548E+02

                                              INSTANTANEOUS             AVERAGES
 CPU TIME [s]                 =                       79.21                60.94
 ENERGY DRIFT PER ATOM [K]    =         -0.251605417907E+00   0.216417226129E+00
 POTENTIAL ENERGY[hartree]    =         -0.344436389745E+02  -0.344441222446E+02
 KINETIC ENERGY [hartree]     =          0.492227481422E-02   0.413327214249E-02
 TEMPERATURE [K]              =                     259.055              217.530
 *******************************************************************************


 Number of electrons:                                                         16
 Number of occupied orbitals:                                                  8
 Number of molecular orbitals:                                                 8

 Number of orbital functions:                                                 46
 Number of independent orbital functions:                                     46

 Extrapolation method: ASPC


 SCF WAVEFUNCTION OPTIMIZATION

  ----------------------------------- OT ---------------------------------------
  Minimizer      : DIIS                : direct inversion
                                         in the iterative subspace
                                         using   7 DIIS vectors
                                         safer DIIS on
  Preconditioner : FULL_ALL            : diagonalization, state selective
  Precond_solver : DEFAULT
  stepsize       :    0.15000000                  energy_gap     :    0.08000000
  eps_taylor     :   0.10000E-15                  max_taylor     :             4
  ----------------------------------- OT ---------------------------------------

  Step     Update method      Time    Convergence         Total energy    Change
  ------------------------------------------------------------------------------
     1 OT DIIS     0.15E+00    8.4     0.00013677       -34.4440789014 -3.44E+01
     2 OT DIIS     0.15E+00    9.6     0.00006403       -34.4440794888 -5.87E-07
     3 OT DIIS     0.15E+00    8.5     0.00003295       -34.4440795859 -9.71E-08
     4 OT DIIS     0.15E+00   10.4     0.00000225       -34.4440796152 -2.93E-08
     5 OT DIIS     0.15E+00    7.8     0.00000107       -34.4440796154 -1.55E-10
     6 OT DIIS     0.15E+00   10.3     0.00000029       -34.4440796154 -2.83E-11

  *** SCF run converged in     6 steps ***


  Electronic density on regular grids:        -15.9999999383        0.0000000617
  Core density on regular grids:               15.9999999995       -0.0000000005
  Total charge density on r-space grids:        0.0000000612
  Total charge density g-space grids:           0.0000000611

  Overlap energy of the core charge distribution:               0.00000013217733
  Self energy of the core charge distribution:                -88.69430999347530
  Core Hamiltonian energy:                                     25.84848237774170
  Hartree energy:                                              36.87111608698180
  Exchange-correlation energy:                                 -8.46858034563556
  Dispersion energy:                                           -0.00078787320317

  Total energy:                                               -34.44407961541320

  outer SCF iter =    1 RMS gradient =   0.29E-06 energy =        -34.4440796154
  outer SCF loop converged in   1 iterations or    6 steps


 MOMENTS
  The electric/magnetic moments are written to file:
  water_dimer_dipole.out


 ENERGY| Total FORCE_EVAL ( QS ) energy (a.u.):              -34.444079615417550


 Temperature scaled to requested temperature:    285.61 K  ->    285.62 K
 MD| Old VCOM =     0.0000022509   -0.0000001641    0.0000000674 a.u.
 MD| New VCOM =    -0.0000000000   -0.0000000000    0.0000000000 a.u

 *******************************************************************************
 ENSEMBLE TYPE                =                                              NVT
 STEP NUMBER                  =                                              200
 TIME [fs]                    =                                       100.000000
 CONSERVED QUANTITY [hartree] =                              -0.344422048730E+02

                                              INSTANTANEOUS             AVERAGES
 CPU TIME [s]                 =                       64.64                60.95
 ENERGY DRIFT PER ATOM [K]    =         -0.689387716956E+00   0.211888201413E+00
 POTENTIAL ENERGY[hartree]    =         -0.344440796154E+02  -0.344441220315E+02
 KINETIC ENERGY [hartree]     =          0.542695927806E-02   0.413974057816E-02
 TEMPERATURE [K]              =                     285.616              217.871
 *******************************************************************************


 Number of electrons:                                                         16
 Number of occupied orbitals:                                                  8
 Number of molecular orbitals:                                                 8

 Number of orbital functions:                                                 46
 Number of independent orbital functions:                                     46

 Extrapolation method: ASPC


 SCF WAVEFUNCTION OPTIMIZATION

  ----------------------------------- OT ---------------------------------------
  Minimizer      : DIIS                : direct inversion
                                         in the iterative subspace
                                         using   7 DIIS vectors
                                         safer DIIS on
  Preconditioner : FULL_ALL            : diagonalization, state selective
  Precond_solver : DEFAULT
  stepsize       :    0.15000000                  energy_gap     :    0.08000000
  eps_taylor     :   0.10000E-15                  max_taylor     :             4
  ----------------------------------- OT ---------------------------------------

  Step     Update method      Time    Convergence         Total energy    Change
  ------------------------------------------------------------------------------
     1 OT DIIS     0.15E+00    8.2     0.00013475       -34.4445434038 -3.44E+01
     2 OT DIIS     0.15E+00    8.5     0.00006175       -34.4445439943 -5.90E-07
     3 OT DIIS     0.15E+00   12.6     0.00003339       -34.4445440898 -9.55E-08
     4 OT DIIS     0.15E+00    9.2     0.00000211       -34.4445441186 -2.88E-08
     5 OT DIIS     0.15E+00    9.0     0.00000100       -34.4445441187 -1.32E-10

  *** SCF run converged in     5 steps ***


  Electronic density on regular grids:        -15.9999999506        0.0000000494
  Core density on regular grids:               15.9999999994       -0.0000000006
  Total charge density on r-space grids:        0.0000000488
  Total charge density g-space grids:           0.0000000488

  Overlap energy of the core charge distribution:               0.00000011650521
  Self energy of the core charge distribution:                -88.69430999347530
  Core Hamiltonian energy:                                     25.82576035098583
  Hartree energy:                                              36.88719592254489
  Exchange-correlation energy:                                 -8.46240480173823
  Dispersion energy:                                           -0.00078571353058

  Total energy:                                               -34.44454411870817

  outer SCF iter =    1 RMS gradient =   0.10E-05 energy =        -34.4445441187
  outer SCF loop converged in   1 iterations or    5 steps


 MOMENTS
  The electric/magnetic moments are written to file:
  water_dimer_dipole.out


 ENERGY| Total FORCE_EVAL ( QS ) energy (a.u.):              -34.444544118723421


 Temperature scaled to requested temperature:    329.57 K  ->    329.58 K
 MD| Old VCOM =     0.0000022127   -0.0000002333    0.0000000554 a.u.
 MD| New VCOM =     0.0000000000   -0.0000000000   -0.0000000000 a.u

 *******************************************************************************
 ENSEMBLE TYPE                =                                              NVT
 STEP NUMBER                  =                                              201
 TIME [fs]                    =                                       100.500000
 CONSERVED QUANTITY [hartree] =                              -0.344422104081E+02

                                              INSTANTANEOUS             AVERAGES
 CPU TIME [s]                 =                       67.96                60.99
 ENERGY DRIFT PER ATOM [K]    =         -0.980696324807E+00   0.205954945064E+00
 POTENTIAL ENERGY[hartree]    =         -0.344445441187E+02  -0.344441241314E+02
 KINETIC ENERGY [hartree]     =          0.626234160550E-02   0.415030078228E-02
 TEMPERATURE [K]              =                     329.581              218.427
 *******************************************************************************


 Number of electrons:                                                         16
 Number of occupied orbitals:                                                  8
 Number of molecular orbitals:                                                 8

 Number of orbital functions:                                                 46
 Number of independent orbital functions:                                     46

 Extrapolation method: ASPC


 SCF WAVEFUNCTION OPTIMIZATION

  ----------------------------------- OT ---------------------------------------
  Minimizer      : DIIS                : direct inversion
                                         in the iterative subspace
                                         using   7 DIIS vectors
                                         safer DIIS on
  Preconditioner : FULL_ALL            : diagonalization, state selective
  Precond_solver : DEFAULT
  stepsize       :    0.15000000                  energy_gap     :    0.08000000
  eps_taylor     :   0.10000E-15                  max_taylor     :             4
  ----------------------------------- OT ---------------------------------------

  Step     Update method      Time    Convergence         Total energy    Change
  ------------------------------------------------------------------------------
     1 OT DIIS     0.15E+00   10.1     0.00013686       -34.4449242725 -3.44E+01
     2 OT DIIS     0.15E+00    9.3     0.00006169       -34.4449248868 -6.14E-07
     3 OT DIIS     0.15E+00   10.4     0.00003556       -34.4449249812 -9.43E-08
     4 OT DIIS     0.15E+00    8.1     0.00000257       -34.4449250114 -3.02E-08
     5 OT DIIS     0.15E+00    7.7     0.00000067       -34.4449250116 -2.34E-10

  *** SCF run converged in     5 steps ***


  Electronic density on regular grids:        -15.9999999635        0.0000000365
  Core density on regular grids:               15.9999999994       -0.0000000006
  Total charge density on r-space grids:        0.0000000359
  Total charge density g-space grids:           0.0000000358

  Overlap energy of the core charge distribution:               0.00000010003351
  Self energy of the core charge distribution:                -88.69430999347530
  Core Hamiltonian energy:                                     25.79687347743403
  Hartree energy:                                              36.90780530396838
  Exchange-correlation energy:                                 -8.45451170088088
  Dispersion energy:                                           -0.00078219866688

  Total energy:                                               -34.44492501158715

  outer SCF iter =    1 RMS gradient =   0.67E-06 energy =        -34.4449250116
  outer SCF loop converged in   1 iterations or    5 steps


 MOMENTS
  The electric/magnetic moments are written to file:
  water_dimer_dipole.out


 ENERGY| Total FORCE_EVAL ( QS ) energy (a.u.):              -34.444925011603509


 Temperature scaled to requested temperature:    311.76 K  ->    311.76 K
 MD| Old VCOM =     0.0000019699   -0.0000002829    0.0000000435 a.u.
 MD| New VCOM =     0.0000000000    0.0000000000    0.0000000000 a.u
 MD| Old VANG =    -0.0000001210   -0.0000002862    0.0000011111 a.u.
 MD| New VANG =    -0.0000000000    0.0000000000   -0.0000000000 a.u

 *******************************************************************************
 ENSEMBLE TYPE                =                                              NVT
 STEP NUMBER                  =                                              202
 TIME [fs]                    =                                       101.000000
 CONSERVED QUANTITY [hartree] =                              -0.344422123730E+02

                                              INSTANTANEOUS             AVERAGES
 CPU TIME [s]                 =                       56.27                60.97
 ENERGY DRIFT PER ATOM [K]    =         -0.108410532879E+01   0.199568508065E+00
 POTENTIAL ENERGY[hartree]    =         -0.344449250116E+02  -0.344441280961E+02
 KINETIC ENERGY [hartree]     =          0.592376015007E-02   0.415908028410E-02
 TEMPERATURE [K]              =                     311.762              218.889
 *******************************************************************************


 Number of electrons:                                                         16
 Number of occupied orbitals:                                                  8
 Number of molecular orbitals:                                                 8

 Number of orbital functions:                                                 46
 Number of independent orbital functions:                                     46

 Extrapolation method: ASPC


 SCF WAVEFUNCTION OPTIMIZATION

  ----------------------------------- OT ---------------------------------------
  Minimizer      : DIIS                : direct inversion
                                         in the iterative subspace
                                         using   7 DIIS vectors
                                         safer DIIS on
  Preconditioner : FULL_ALL            : diagonalization, state selective
  Precond_solver : DEFAULT
  stepsize       :    0.15000000                  energy_gap     :    0.08000000
  eps_taylor     :   0.10000E-15                  max_taylor     :             4
  ----------------------------------- OT ---------------------------------------

  Step     Update method      Time    Convergence         Total energy    Change
  ------------------------------------------------------------------------------
     1 OT DIIS     0.15E+00    7.3     0.00013055       -34.4451818651 -3.44E+01
     2 OT DIIS     0.15E+00   10.8     0.00005946       -34.4451824206 -5.55E-07
     3 OT DIIS     0.15E+00    8.6     0.00003400       -34.4451825068 -8.62E-08
     4 OT DIIS     0.15E+00   14.0     0.00000246       -34.4451825346 -2.78E-08
