       8
 i =        1, E =       -44.9726993387
  C         0.8815704429        2.7015824797        2.7015807890
  C        -0.0131496084       -0.0131571919       -0.0131506913
  C         0.8940878496        0.8940956308        0.8940936093
  C        -0.0228750802        1.7937595541        1.7937568865
  C         2.7015777211        2.7015819817        0.8815645364
  C         1.7937551033       -0.0228678859        1.7937530471
  C         2.7015863037        0.8815626203        2.7015836059
  C         1.7937555146        1.7937508805       -0.0228735824
       8
 i =        2, E =       -44.9728891762
  C         0.8886956738        2.7061666095        2.7061659225
  C        -0.0145831634       -0.0145831631       -0.0145827127
  C         0.8938895171        0.8938897526        0.8938902379
  C        -0.0183894248        1.7984774512        1.7984767368
  C         2.7061647810        2.7061649265        0.8886943058
  C         1.7984771397       -0.0183890979        1.7984764078
  C         2.7061668992        0.8886953536        2.7061657159
  C         1.7984757686        1.7984752645       -0.0183904318
       8
 i =        3, E =       -44.9728293006
  C         0.9205524850        2.7283478507        2.7283501345
  C        -0.0099909358       -0.0099743410       -0.0099879252
  C         0.9002414633        0.9002243455        0.9002294659
  C         0.0066543778        1.8211803178        1.8211849116
  C         2.7283553394        2.7283460558        0.9205634951
  C         1.8211898496        0.0066386538        1.8211929155
  C         2.7283396244        0.9205695946        2.7283437210
  C         1.8211865481        1.8211963869        0.0066492361
       8
 i =        4, E =       -44.9732185329
  C         0.9018412927        2.7164040926        2.7164041512
  C        -0.0086944489       -0.0086903273       -0.0086934751
  C         0.8997789389        0.8997748323        0.8997762588
  C        -0.0074430635        1.8090181427        1.8090186604
  C         2.7164048314        2.7164029421        0.9018432252
  C         1.8090200604       -0.0074465688        1.8090206872
  C         2.7164022428        0.9018453620        2.7164025508
  C         1.8090185515        1.8090208609       -0.0074448364
       8
 i =        5, E =       -44.9733133337
  C         0.9058375583        2.7204095433        2.7204095728
  C        -0.0041399420       -0.0041367938       -0.0041392876
  C         0.9039214122        0.9039184500        0.9039193953
  C        -0.0033072713        1.8130009669        1.8130012893
  C         2.7204100588        2.7204087853        0.9058389168
  C         1.8130022271       -0.0033097541        1.8130027634
  C         2.7204081598        0.9058404578        2.7204083491
  C         1.8130012250        1.8130028809       -0.0033085867
       8
 i =        6, E =       -44.9733417786
  C         0.9088394535        2.7239055878        2.7239054302
  C         0.0015461944        0.0015460874        0.0015461089
  C         0.9088453460        0.9088456059        0.9088454394
  C         0.0008967856        1.8164139012        1.8164138091
  C         2.7239053435        2.7239054407        0.9088391882
  C         1.8164137322        0.0008969712        1.8164135688
  C         2.7239056097        0.9088391704        2.7239054923
  C         1.8164136777        1.8164135414        0.0008966734
       8
 i =        7, E =       -44.9733475285
  C         0.9075709638        2.7224600305        2.7224599843
  C        -0.0000074023       -0.0000073839       -0.0000074466
  C         0.9073462549        0.9073462690        0.9073462053
  C        -0.0001175481        1.8149659459        1.8149659044
  C         2.7224599897        2.7224600118        0.9075709364
  C         1.8149659277       -0.0001175432        1.8149658748
  C         2.7224600262        0.9075709579        2.7224599926
  C         1.8149659145        1.8149658977       -0.0001175930
       8
 i =        8, E =       -44.9733476045
  C         0.9075034291        2.7224957938        2.7224957788
  C         0.0000554266        0.0000554287        0.0000554049
  C         0.9074712226        0.9074712221        0.9074712024
  C        -0.0000642440        1.8149910396        1.8149910171
  C         2.7224957940        2.7224958009        0.9075034242
  C         1.8149910361       -0.0000642439        1.8149910136
  C         2.7224958015        0.9075034358        2.7224957903
  C         1.8149910285        1.8149910287       -0.0000642435
       8
 i =        9, E =       -44.9733476043
  C         0.9075034291        2.7224957938        2.7224957788
  C         0.0000554266        0.0000554287        0.0000554049
  C         0.9074712226        0.9074712221        0.9074712024
  C        -0.0000642440        1.8149910396        1.8149910171
  C         2.7224957940        2.7224958009        0.9075034242
  C         1.8149910361       -0.0000642439        1.8149910136
  C         2.7224958015        0.9075034358        2.7224957903
  C         1.8149910285        1.8149910287       -0.0000642435
