       8
 i =        1, E =       -44.9312880626
  C         0.8929505388        2.6594456913        2.6594513417
  C         0.0207830940        0.0207799234        0.0207798750
  C         0.8993238745        0.8993234451        0.8993286243
  C         0.0151502968        1.7785844963        1.7785742300
  C         2.6594465617        2.6594555564        0.8929478706
  C         1.7785806026        0.0151546276        1.7785855281
  C         2.6594564507        0.8929527344        2.6594496205
  C         1.7785804390        1.7785752640        0.0151547422
       8
 i =        2, E =       -44.9315344153
  C         0.8899944049        2.6529118729        2.6529152532
  C         0.0164831818        0.0164798839        0.0164804122
  C         0.8964394997        0.8964376340        0.8964417533
  C         0.0106172902        1.7729282576        1.7729207700
  C         2.6529115387        2.6529188523        0.8899920000
  C         1.7729261767        0.0106205364        1.7729301863
  C         2.6529195746        0.8899962096        2.6529158670
  C         1.7729248049        1.7729222062        0.0106200076
       8
 i =        3, E =       -44.9313409428
  C         0.8709057375        2.6247499672        2.6247436477
  C        -0.0077230683       -0.0077248580       -0.0077224836
  C         0.8751308398        0.8751263834        0.8751253616
  C        -0.0126413857        1.7470188055        1.7470245854
  C         2.6247471612        2.6247438025        0.8709068265
  C         1.7470247131       -0.0126428880        1.7470225461
  C         2.6247443004        0.8709060586        2.6247518713
  C         1.7470198520        1.7470268627       -0.0126447952
       8
 i =        4, E =       -44.9318617921
  C         0.8807854986        2.6410017398        2.6410008036
  C         0.0045495237        0.0045472110        0.0045484912
  C         0.8851982426        0.8851960268        0.8851976713
  C        -0.0000671369        1.7615235565        1.7615222163
  C         2.6410007952        2.6410028948        0.8807851470
  C         1.7615251337       -0.0000656357        1.7615260505
  C         2.6410036640        0.8807867666        2.6410046064
  C         1.7615224879        1.7615239293       -0.0000667133
       8
 i =        5, E =       -44.9318896999
  C         0.8800664456        2.6398707919        2.6398700232
  C         0.0014293669        0.0014282646        0.0014289209
  C         0.8817312906        0.8817301164        0.8817306493
  C        -0.0004220484        1.7601297004        1.7601296566
  C         2.6398704483        2.6398709504        0.8800664796
  C         1.7601307679       -0.0004216403        1.7601309844
  C         2.6398711652        0.8800668854        2.6398721066
  C         1.7601295440        1.7601305829       -0.0004220132
       8
 i =        6, E =       -44.9318954528
  C         0.8803851995        2.6401514217        2.6401518465
  C        -0.0003149026       -0.0003148557       -0.0003150693
  C         0.8796069462        0.8796071520        0.8796071199
  C         0.0004162598        1.7601105771        1.7601102672
  C         2.6401516077        2.6401518469        0.8803850321
  C         1.7601100928        0.0004162245        1.7601103412
  C         2.6401516751        0.8803850059        2.6401513468
  C         1.7601105783        1.7601101297        0.0004164175
       8
 i =        7, E =       -44.9318957886
  C         0.8800717162        2.6399639812        2.6399639931
  C        -0.0000730464       -0.0000730654       -0.0000730801
  C         0.8799221340        0.8799221491        0.8799221274
  C         0.0000373083        1.7599761407        1.7599761361
  C         2.6399640027        2.6399640137        0.8800717032
  C         1.7599761206        0.0000373166        1.7599761511
  C         2.6399639999        0.8800716882        2.6399640099
  C         1.7599761653        1.7599761361        0.0000373191
       8
 i =        8, E =       -44.9318957884
  C         0.8800717162        2.6399639812        2.6399639931
  C        -0.0000730464       -0.0000730654       -0.0000730801
  C         0.8799221340        0.8799221491        0.8799221274
  C         0.0000373083        1.7599761407        1.7599761361
  C         2.6399640027        2.6399640137        0.8800717032
  C         1.7599761206        0.0000373166        1.7599761511
  C         2.6399639999        0.8800716882        2.6399640099
  C         1.7599761653        1.7599761361        0.0000373191
