       8
 i =        1, E =       -45.1113506592
  C         0.8590879839        2.7222116078        2.7222152916
  C        -0.0222320015       -0.0222463722       -0.0222423345
  C         0.8956172150        0.8956255122        0.8956214693
  C        -0.0486319892        1.7963921165        1.7963897968
  C         2.7222134095        2.7222277390        0.8590865348
  C         1.7963875866       -0.0486146827        1.7963962592
  C         2.7222283105        0.8590832208        2.7222242231
  C         1.7963958449        1.7963871346       -0.0486248978
       8
 i =        2, E =       -45.1122558597
  C         0.8741290809        2.7238852844        2.7238862120
  C        -0.0415268139       -0.0415315565       -0.0415284558
  C         0.8841108496        0.8841129786        0.8841122270
  C        -0.0468485282        1.8001767052        1.8001750411
  C         2.7238850706        2.7238901091        0.8741282974
  C         1.8001753706       -0.0468431181        1.8001765733
  C         2.7238906382        0.8741279024        2.7238891346
  C         1.8001770828        1.8001746704       -0.0468460334
       8
 i =        3, E =       -45.1122963609
  C         0.8765456575        2.7228042762        2.7228046689
  C        -0.0445300704       -0.0445312425       -0.0445307014
  C         0.8798453396        0.8798454763        0.8798456500
  C        -0.0453880699        1.8003171346        1.8003169837
  C         2.7228044672        2.7228058885        0.8765455384
  C         1.8003169779       -0.0453865838        1.8003172164
  C         2.7228058957        0.8765457428        2.7228056465
  C         1.8003172534        1.8003169730       -0.0453873166
       8
 i =        4, E =       -45.1123081738
  C         0.8770544869        2.7216320303        2.7216319648
  C        -0.0464903607       -0.0464897965       -0.0464900885
  C         0.8764301309        0.8764296320        0.8764299300
  C        -0.0451924024        1.7994139428        1.7994142981
  C         2.7216320408        2.7216316172        0.8770546805
  C         1.7994141410       -0.0451930100        1.7994138614
  C         2.7216315218        0.8770549258        2.7216316952
  C         1.7994138972        1.7994143187       -0.0451926693
       8
 i =        5, E =       -45.1123168133
  C         0.8761883766        2.7201525878        2.7201523545
  C        -0.0480580702       -0.0480569052       -0.0480575343
  C         0.8739102312        0.8739097035        0.8739099133
  C        -0.0463568622        1.7978809861        1.7978814021
  C         2.7201525203        2.7201514111        0.8761886137
  C         1.7978811977       -0.0463581879        1.7978808697
  C         2.7201512734        0.8761887347        2.7201515932
  C         1.7978808759        1.7978814036       -0.0463574781
       8
 i =        6, E =       -45.1123556551
  C         0.8681490895        2.7095629388        2.7095619269
  C        -0.0585708073       -0.0585674048       -0.0585692757
  C         0.8588406904        0.8588404367        0.8588400501
  C        -0.0562609568        1.7868802565        1.7868806207
  C         2.7095624893        2.7095585977        0.8681493679
  C         1.7868804798       -0.0562649972        1.7868801094
  C         2.7095583601        0.8681488230        2.7095592640
  C         1.7868798207        1.7868806042       -0.0562628823
       8
 i =        7, E =       -45.1123885337
  C         0.8617227153        2.7032358670        2.7032347417
  C        -0.0641113968       -0.0641081767       -0.0641099630
  C         0.8522673695        0.8522675076        0.8522667050
  C        -0.0632838515        1.7803536411        1.7803537370
  C         2.7032353675        2.7032314407        0.8617230153
  C         1.7803538267       -0.0632877468        1.7803537680
  C         2.7032312155        0.8617220936        2.7032321787
  C         1.7803532703        1.7803539045       -0.0632857515
       8
 i =        8, E =       -45.1124590947
  C         0.8431598117        2.6879720236        2.6879714617
  C        -0.0767659594       -0.0767660851       -0.0767660655
  C         0.8413659498        0.8413672864        0.8413657730
  C        -0.0819616274        1.7648141287        1.7648131860
  C         2.6879718463        2.6879711424        0.8431599198
  C         1.7648141696       -0.0819616041        1.7648152011
  C         2.6879711580        0.8431585749        2.6879715409
  C         1.7648142550        1.7648139644       -0.0819617187
       8
 i =        9, E =       -45.1124842347
  C         0.8466814232        2.6923715897        2.6923714993
  C        -0.0733035474       -0.0733044813       -0.0733039737
  C         0.8477150642        0.8477160323        0.8477151696
  C        -0.0771984580        1.7695146374        1.7695139157
  C         2.6923716041        2.6923721305        0.8466813584
  C         1.7695146554       -0.0771973901        1.7695153316
  C         2.6923722021        0.8466806602        2.6923721943
  C         1.7695147765        1.7695144164       -0.0771979979
       8
 i =       10, E =       -45.1124908600
  C         0.8463155972        2.6915682195        2.6915682748
  C        -0.0753680306       -0.0753684932       -0.0753682634
  C         0.8468511819        0.8468515605        0.8468512880
  C        -0.0768384805        1.7690055357        1.7690052657
  C         2.6915683091        2.6915686273        0.8463154810
  C         1.7690056435       -0.0768379131        1.7690057880
  C         2.6915686509        0.8463153081        2.6915685862
  C         1.7690055586        1.7690054612       -0.0768382017
       8
 i =       11, E =       -45.1124920698
  C         0.8457243701        2.6906996038        2.6906996661
  C        -0.0768178972       -0.0768179557       -0.0768179536
  C         0.8457418172        0.8457418258        0.8457418402
  C        -0.0768345220        1.7682356281        1.7682356363
  C         2.6906996593        2.6906997071        0.8457243110
  C         1.7682357108       -0.0768344701        1.7682356254
  C         2.6906996994        0.8457243499        2.6906996334
  C         1.7682356139        1.7682356440       -0.0768345050
       8
 i =       12, E =       -45.1124920853
  C         0.8456056000        2.6906238591        2.6906238889
  C        -0.0768604481       -0.0768604733       -0.0768604788
  C         0.8456514914        0.8456514806        0.8456514764
  C        -0.0768967458        1.7681314590        1.7681314686
  C         2.6906238939        2.6906239059        0.8456055737
  C         1.7681315098       -0.0768967399        1.7681314607
  C         2.6906239038        0.8456055859        2.6906238583
  C         1.7681314669        1.7681314833       -0.0768967614
       8
 i =       13, E =       -45.1124920849
  C         0.8456056000        2.6906238591        2.6906238889
  C        -0.0768604481       -0.0768604733       -0.0768604788
  C         0.8456514914        0.8456514806        0.8456514764
  C        -0.0768967458        1.7681314590        1.7681314686
  C         2.6906238939        2.6906239059        0.8456055737
  C         1.7681315098       -0.0768967399        1.7681314607
  C         2.6906239038        0.8456055859        2.6906238583
  C         1.7681314669        1.7681314833       -0.0768967614
