       8
 i =        1, E =       -45.1129311857
  C         0.8887748709        2.6947240867        2.6947187867
  C        -0.0089128974       -0.0089192933       -0.0089128138
  C         0.8933466063        0.8933531086        0.8933526476
  C        -0.0125537879        1.7920889038        1.7920883400
  C         2.6947204190        2.6947191604        0.8887695567
  C         1.7920896438       -0.0125479812        1.7920828464
  C         2.6947252734        0.8887705453        2.6947260631
  C         1.7920828267        1.7920843155       -0.0125524666
       8
 i =        2, E =       -45.1129960002
  C         0.8914871135        2.6980264432        2.6980232490
  C        -0.0085427744       -0.0085456808       -0.0085430880
  C         0.8942911813        0.8942936810        0.8942939637
  C        -0.0108074344        1.7953659762        1.7953661019
  C         2.6980236928        2.6980237064        0.8914841346
  C         1.7953666419       -0.0108044464        1.7953635764
  C         2.6980265348        0.8914846627        2.6980269659
  C         1.7953628961        1.7953634240       -0.0108073777
       8
 i =        3, E =       -45.1130623412
  C         0.8982229596        2.7039705702        2.7039714024
  C        -0.0054688085       -0.0054667130       -0.0054689120
  C         0.8975653819        0.8975627723        0.8975635098
  C        -0.0050373213        1.8014721090        1.8014722561
  C         2.7039704898        2.7039713759        0.8982241011
  C         1.8014721581       -0.0050389716        1.8014741487
  C         2.7039698689        0.8982241211        2.7039694154
  C         1.8014734227        1.8014728672       -0.0050384254
       8
 i =        4, E =       -45.1130888057
  C         0.9040062670        2.7086182110        2.7086209398
  C        -0.0012184461       -0.0012146777       -0.0012183150
  C         0.9014902662        0.9014862358        0.9014867250
  C         0.0006688789        1.8061972415        1.8061971891
  C         2.7086198568        2.7086206143        0.9040091395
  C         1.8061968726        0.0006654465        1.8062005798
  C         2.7086175569        0.9040089705        2.7086167863
  C         1.8062003088        1.8061995196        0.0006677915
       8
 i =        5, E =       -45.1130999672
  C         0.9028017264        2.7075366234        2.7075375903
  C        -0.0006007867       -0.0005994506       -0.0006006841
  C         0.9018483304        0.9018468766        0.9018469934
  C         0.0000037268        1.8050772755        1.8050771558
  C         2.7075372385        2.7075374495        0.9028027766
  C         1.8050771307        0.0000024610        1.8050784235
  C         2.7075364224        0.9028027968        2.7075360803
  C         1.8050783578        1.8050781405        0.0000033258
       8
 i =        6, E =       -45.1131008577
  C         0.9026195988        2.7075244918        2.7075245966
  C         0.0000296220        0.0000297621        0.0000296310
  C         0.9024431837        0.9024430324        0.9024430119
  C         0.0000671682        1.8050215580        1.8050214865
  C         2.7075245810        2.7075245647        0.9026197049
  C         1.8050215342        0.0000670184        1.8050216406
  C         2.7075244822        0.9026197590        2.7075244045
  C         1.8050216756        1.8050216737        0.0000671139
       8
 i =        7, E =       -45.1131008573
  C         0.9026195988        2.7075244918        2.7075245966
  C         0.0000296220        0.0000297621        0.0000296310
  C         0.9024431837        0.9024430324        0.9024430119
  C         0.0000671682        1.8050215580        1.8050214865
  C         2.7075245810        2.7075245647        0.9026197049
  C         1.8050215342        0.0000670184        1.8050216406
  C         2.7075244822        0.9026197590        2.7075244045
  C         1.8050216756        1.8050216737        0.0000671139
