       8
 i =        1, E =       -45.1061292950
  C         0.8933288549        2.6784418589        2.6784410173
  C         0.0008760048        0.0008679232        0.0008741223
  C         0.8933385466        0.8933451196        0.8933478443
  C         0.0008558818        1.7859619730        1.7859542174
  C         2.6784364745        2.6784422094        0.8933207050
  C         1.7859577502        0.0008636271        1.7859559489
  C         2.6784498306        0.8933246688        2.6784442875
  C         1.7859524827        1.7859485042        0.0008576602
       8
 i =        2, E =       -45.1061302255
  C         0.8930369632        2.6780115988        2.6780107505
  C         0.0005584911        0.0005543718        0.0005575838
  C         0.8930420623        0.8930448090        0.8930466331
  C         0.0005485109        1.7855281025        1.7855240163
  C         2.6780080263        2.6780116758        0.8930323453
  C         1.7855259498        0.0005526481        1.7855249788
  C         2.6780152168        0.8930341848        2.6780125237
  C         1.7855230224        1.7855208753        0.0005494090
       8
 i =        3, E =       -45.1061302252
  C         0.8930369632        2.6780115988        2.6780107505
  C         0.0005584911        0.0005543718        0.0005575838
  C         0.8930420623        0.8930448090        0.8930466331
  C         0.0005485109        1.7855281025        1.7855240163
  C         2.6780080263        2.6780116758        0.8930323453
  C         1.7855259498        0.0005526481        1.7855249788
  C         2.6780152168        0.8930341848        2.6780125237
  C         1.7855230224        1.7855208753        0.0005494090
