       8
 i =        1, E =       -44.9659847477
  C         0.8921344208        2.6933317994        2.6933294680
  C        -0.0050513595       -0.0050581409       -0.0050514260
  C         0.8951730978        0.8951788952        0.8951794101
  C        -0.0074828171        1.7931697116        1.7931652615
  C         2.6933267464        2.6933300792        0.8921285508
  C         1.7931668723       -0.0074766537        1.7931639352
  C         2.6933362070        0.8921296145        2.6933331051
  C         1.7931633649        1.7931608473       -0.0074817921
       8
 i =        2, E =       -44.9660689664
  C         0.8967426863        2.6973409041        2.6973406184
  C        -0.0031656615       -0.0031654736       -0.0031654958
  C         0.8972090623        0.8972087976        0.8972091357
  C        -0.0033428815        1.7971386378        1.7971384447
  C         2.6973403030        2.6973403001        0.8967423016
  C         1.7971388855       -0.0033428823        1.7971386654
  C         2.6973410094        0.8967429516        2.6973406861
  C         1.7971380958        1.7971381226       -0.0033434116
       8
 i =        3, E =       -44.9660907298
  C         0.9013962193        2.7012078914        2.7012083004
  C         0.0006702195        0.0006708462        0.0006700455
  C         0.9007144484        0.9007139417        0.9007135630
  C         0.0012832306        1.8012033684        1.8012040424
  C         2.7012088832        2.7012085210        0.9013971489
  C         1.8012035345        0.0012825121        1.8012039858
  C         2.7012073195        0.9013965731        2.7012078651
  C         1.8012045424        1.8012048200        0.0012834115
       8
 i =        4, E =       -44.9660949372
  C         0.8999209319        2.6999277983        2.6999277961
  C        -0.0001100138       -0.0001098670       -0.0001099814
  C         0.8999060183        0.8999058706        0.8999059162
  C        -0.0000850619        1.7999308913        1.7999309232
  C         2.6999278114        2.6999277544        0.8999209939
  C         1.7999309626       -0.0000851911        1.7999309760
  C         2.6999277217        0.8999210568        2.6999277297
  C         1.7999309262        1.7999309845       -0.0000851342
       8
 i =        5, E =       -44.9660949616
  C         0.8999979695        2.7000047365        2.7000047172
  C         0.0000067888        0.0000066349        0.0000067219
  C         0.9000083583        0.9000085069        0.9000084394
  C        -0.0000026283        1.8000046541        1.8000046410
  C         2.7000047042        2.7000047847        0.8999978789
  C         1.8000045762       -0.0000024774        1.8000045635
  C         2.7000048094        0.8999978142        2.7000047948
  C         1.8000046290        1.8000045552       -0.0000025707
       8
 i =        6, E =       -44.9660949607
  C         0.8999979695        2.7000047365        2.7000047172
  C         0.0000067888        0.0000066349        0.0000067219
  C         0.9000083583        0.9000085069        0.9000084394
  C        -0.0000026283        1.8000046541        1.8000046410
  C         2.7000047042        2.7000047847        0.8999978789
  C         1.8000045762       -0.0000024774        1.8000045635
  C         2.7000048094        0.8999978142        2.7000047948
  C         1.8000046290        1.8000045552       -0.0000025707
