       8
 i =        1, E =       -45.0935759647
  C         0.8926530431        2.6633396508        2.6633450323
  C         0.0165287156        0.0165259533        0.0165265505
  C         0.8983458525        0.8983466322        0.8983548674
  C         0.0115657516        1.7803749653        1.7803608044
  C         2.6633350118        2.6633448901        0.8926440263
  C         1.7803676888        0.0115686031        1.7803704493
  C         2.6633496006        0.8926525285        2.6633398551
  C         1.7803639300        1.7803565049        0.0115680255
       8
 i =        2, E =       -45.0936681799
  C         0.8911418793        2.6593302327        2.6593354333
  C         0.0149769892        0.0149740422        0.0149747631
  C         0.8975583947        0.8975588307        0.8975675004
  C         0.0090783269        1.7767893109        1.7767750589
  C         2.6593253425        2.6593355598        0.8911328180
  C         1.7767817990        0.0090812675        1.7767850260
  C         2.6593405003        0.8911414589        2.6593305440
  C         1.7767779391        1.7767703593        0.0090805905
       8
 i =        3, E =       -45.0937545872
  C         0.8858629741        2.6525797536        2.6525845595
  C         0.0103808274        0.0103776113        0.0103787939
  C         0.8934039234        0.8934038452        0.8934126861
  C         0.0027405462        1.7704740023        1.7704602243
  C         2.6525747242        2.6525849456        0.8858544118
  C         1.7704667548        0.0027435634        1.7704703490
  C         2.6525900767        0.8858628460        2.6525805604
  C         1.7704628207        1.7704554537        0.0027428639
       8
 i =        4, E =       -45.0937959600
  C         0.8788812704        2.6457044561        2.6457082111
  C         0.0038840908        0.0038809086        0.0038823955
  C         0.8867798081        0.8867793276        0.8867872629
  C        -0.0046410470        1.7636383816        1.7636273587
  C         2.6457004158        2.6457088745        0.8788746147
  C         1.7636328559       -0.0046383292        1.7636359732
  C         2.6457131441        0.8788813456        2.6457059888
  C         1.7636292501        1.7636234311       -0.0046385563
       8
 i =        5, E =       -45.0938156452
  C         0.8797483711        2.6473729827        2.6473765634
  C         0.0038600212        0.0038572410        0.0038581772
  C         0.8864511549        0.8864508659        0.8864575753
  C        -0.0032271386        1.7650216629        1.7650118127
  C         2.6473698364        2.6473774273        0.8797424259
  C         1.7650167590       -0.0032246109        1.7650195565
  C         2.6473807085        0.8797484483        2.6473744768
  C         1.7650138706        1.7650087471       -0.0032246898
       8
 i =        6, E =       -45.0938196824
  C         0.8799966199        2.6476235036        2.6476264812
  C         0.0026214404        0.0026193600        0.0026193132
  C         0.8850439406        0.8850438440        0.8850482711
  C        -0.0025389153        1.7650915339        1.7650848173
  C         2.6476224111        2.6476278114        0.8799925624
  C         1.7650881343       -0.0025369754        1.7650903249
  C         2.6476289421        0.8799966340        2.6476251399
  C         1.7650867622        1.7650832743       -0.0025363799
       8
 i =        7, E =       -45.0938196822
  C         0.8799966199        2.6476235036        2.6476264812
  C         0.0026214404        0.0026193600        0.0026193132
  C         0.8850439406        0.8850438440        0.8850482711
  C        -0.0025389153        1.7650915339        1.7650848173
  C         2.6476224111        2.6476278114        0.8799925624
  C         1.7650881343       -0.0025369754        1.7650903249
  C         2.6476289421        0.8799966340        2.6476251399
  C         1.7650867622        1.7650832743       -0.0025363799
