       8
 i =        1, E =       -44.9109596540
  C         0.7429407197        2.7921580841        2.7921896989
  C        -0.0261280417       -0.0261505758       -0.0261428792
  C         0.9103438716        0.9103471775        0.9103512424
  C        -0.1204849756        1.8042656613        1.8042396035
  C         2.7921707748        2.7921828499        0.7429388585
  C         1.8042376901       -0.1205025666        1.8042583450
  C         2.7921677597        0.7429613996        2.7921501449
  C         1.8042568119        1.8042420806       -0.1204804953
       8
 i =        2, E =       -44.9334227352
  C         0.8466607325        2.8237076674        2.8237207340
  C        -0.1587281115       -0.1587175498       -0.1587274578
  C         0.8334762337        0.8334782424        0.8334771458
  C        -0.1019892441        1.8223559394        1.8223490871
  C         2.8237167633        2.8237166439        0.8466593432
  C         1.8223485524       -0.1019902093        1.8223519153
  C         2.8237189849        0.8466567446        2.8237115354
  C         1.8223532385        1.8223508885       -0.1019880119
       8
 i =        3, E =       -44.9406469938
  C         0.8746372274        2.7915210675        2.7915180001
  C        -0.1215423093       -0.1215524964       -0.1215437290
  C         0.8606719720        0.8606736604        0.8606716360
  C        -0.1017244343        1.8262617661        1.8262626247
  C         2.7915188770        2.7915201505        0.8746387197
  C         1.8262640835       -0.1017240422        1.8262608060
  C         2.7915190542        0.8746406474        2.7915195107
  C         1.8262597461        1.8262644578       -0.1017254759
       8
 i =        4, E =       -44.9421387177
  C         0.8653953819        2.8053250072        2.8053250449
  C        -0.1039035927       -0.1038973541       -0.1039021136
  C         0.8726555492        0.8726556596        0.8726549536
  C        -0.0987816344        1.8364457490        1.8364478900
  C         2.8053260807        2.8053247562        0.8653946845
  C         1.8364475887       -0.0987800948        1.8364457894
  C         2.8053263149        0.8653920229        2.8053261611
  C         1.8364465881        1.8364466038       -0.0987821527
       8
 i =        5, E =       -44.9429797366
  C         0.8773993549        2.8280211454        2.8280205576
  C        -0.0811612835       -0.0811673563       -0.0811632505
  C         0.8903986943        0.8903972100        0.8903983277
  C        -0.0852723598        1.8578598804        1.8578576156
  C         2.8280194167        2.8280223895        0.8773996958
  C         1.8578592234       -0.0852734066        1.8578610433
  C         2.8280198175        0.8774028792        2.8280197574
  C         1.8578592543        1.8578585646       -0.0852724911
       8
 i =        6, E =       -44.9431342860
  C         0.8857542810        2.8289493347        2.8289511594
  C        -0.0826540125       -0.0826434544       -0.0826515800
  C         0.8890889057        0.8890893994        0.8890888939
  C        -0.0816379974        1.8591714233        1.8591733058
  C         2.8289520682        2.8289485923        0.8857530237
  C         1.8591711476       -0.0816375118        1.8591704078
  C         2.8289506672        0.8857489853        2.8289504108
  C         1.8591730468        1.8591708334       -0.0816380127
       8
 i =        7, E =       -44.9431528866
  C         0.8892064013        2.8290754621        2.8290724185
  C        -0.0810109757       -0.0810265747       -0.0810148177
  C         0.8898791632        0.8898776008        0.8898788253
  C        -0.0803247692        1.8594916274        1.8594878221
  C         2.8290715616        2.8290767708        0.8892079976
  C         1.8594918893       -0.0803248302        1.8594935879
  C         2.8290739875        0.8892136736        2.8290746884
  C         1.8594887733        1.8594920193       -0.0803246747
       8
 i =        8, E =       -44.9431538137
  C         0.8892259516        2.8291962048        2.8291994423
  C        -0.0810705776       -0.0810554931       -0.0810668644
  C         0.8895468080        0.8895484495        0.8895471032
  C        -0.0804210935        1.8593110818        1.8593150050
  C         2.8292002271        2.8291946548        0.8892245007
  C         1.8593105962       -0.0804215604        1.8593089201
  C         2.8291969169        0.8892192457        2.8291961802
  C         1.8593142166        1.8593103281       -0.0804213259
       8
 i =        9, E =       -44.9431538130
  C         0.8892259516        2.8291962048        2.8291994423
  C        -0.0810705776       -0.0810554931       -0.0810668644
  C         0.8895468080        0.8895484495        0.8895471032
  C        -0.0804210935        1.8593110818        1.8593150050
  C         2.8292002271        2.8291946548        0.8892245007
  C         1.8593105962       -0.0804215604        1.8593089201
  C         2.8291969169        0.8892192457        2.8291961802
  C         1.8593142166        1.8593103281       -0.0804213259
