       8
 i =        1, E =       -45.0334718198
  C         0.9943172494        2.6472012909        2.5899893134
  C         0.0147978856       -0.1173609345        0.0148642242
  C         0.8874106956        0.9346084001        0.8873483944
  C         0.0881126126        1.7784635628        1.8509659664
  C         2.5901480269        2.6473156441        0.9942745321
  C         1.7801462695        0.0024768301        1.7803213079
  C         2.5150268338        1.0491926035        2.5149736984
  C         1.8509188253        1.7785791110        0.0881433919
       8
 i =        2, E =       -45.0873107080
  C         0.9938498577        2.6280687588        2.5844366067
  C        -0.0062098767       -0.1243301917       -0.0061353334
  C         0.9305336093        0.8583331006        0.9305023683
  C         0.1810165450        1.7645868759        1.8159740112
  C         2.5847043182        2.6282896255        0.9937287527
  C         1.8401474536       -0.0983511897        1.8403044706
  C         2.3798533291        1.2991926035        2.3798428364
  C         1.8159179076        1.7647422444        0.1811599578
       8
 i =        3, E =       -45.1138182501
  C         0.9658801255        2.6702512225        2.5971158510
  C         0.0322168020       -0.1962058360        0.0319350824
  C         0.9141263962        0.8679876325        0.9143530942
  C         0.1456355669        1.7572255549        1.8120748402
  C         2.5975936070        2.6708474975        0.9654680154
  C         1.8463717521       -0.0927730370        1.8463057279
  C         2.4057111697        1.2836789775        2.4060216714
  C         1.8119900562        1.7573986265        0.1462522490
       8
 i =        4, E =       -45.1429465699
  C         0.9005507538        2.7657640392        2.6811483515
  C         0.0935956035       -0.4278693546        0.0913010753
  C         0.8422032517        0.8240583339        0.8432889833
  C         0.1182520027        1.7605414016        1.8187552367
  C         2.6839604785        2.7675212005        0.8986659209
  C         1.8598875784       -0.0827337422        1.8584837434
  C         2.3978887854        1.3493982040        2.4007884230
  C         1.8175013541        1.7620845651        0.1214537417
       8
 i =        5, E =       -45.1690670364
  C         0.8389675266        2.7629993548        2.6495110310
  C         0.1857384063       -0.4970217453        0.1798153497
  C         0.8621196950        0.8029285380        0.8642998981
  C         0.0465630334        1.7702866260        1.7728014244
  C         2.6552988981        2.7668817904        0.8352400627
  C         1.9008452223       -0.0225050758        1.8992801930
  C         2.4502643003        1.3628318389        2.4554308212
  C         1.7704069442        1.7728084421        0.0534661303
       8
 i =        6, E =       -45.1768379027
  C         0.8275501137        2.7281880909        2.6205739438
  C         0.3178372444       -0.5904080206        0.2968325087
  C         0.8417150430        0.7609278008        0.8500875822
  C        -0.0909465081        1.8024828705        1.7567508202
  C         2.6451503184        2.7369738308        0.8142790842
  C         1.8916036683        0.1763817540        1.8835895781
  C         2.5295942850        1.2963862326        2.5498546991
  C         1.7441779929        1.8129443375       -0.0670619642
       8
 i =        7, E =       -45.2064698041
  C         0.8872521057        2.6992187516        2.6502761586
  C         0.2260211317       -0.4248749111        0.1846444048
  C         0.8428517692        0.7492047366        0.8625641885
  C        -0.0292945470        1.7836391551        1.8081396282
  C         2.7000191206        2.7127217373        0.8574885994
  C         1.8543905347        0.1161353438        1.8345936243
  C         2.4513661721        1.2801388986        2.4927417014
  C         1.7781121471        1.8019652497        0.0175679725
       8
 i =        8, E =       -45.2208524760
  C         0.8986727397        2.7332622795        2.6770072063
  C         0.2697497622       -0.5095792847        0.1354362819
  C         0.7747634214        0.6894380758        0.8405915237
  C        -0.0791307698        1.7523464302        1.8615215602
  C         2.8349847563        2.7892155947        0.8014068886
  C         1.8707785208        0.1116615051        1.8094994552
  C         2.3688379349        1.3356053061        2.5039584486
  C         1.7698206073        1.8103692516        0.0777471514
       8
 i =        9, E =       -45.2475846946
  C         0.9555595950        2.6734515729        2.6009803788
  C         0.3395817142       -0.5049641945        0.0946609441
  C         0.7671965659        0.6706276665        0.8605795684
  C        -0.1732674520        1.7371800109        1.8806781043
  C         2.8709804599        2.8002376148        0.8005081905
  C         1.8669331080        0.1622749606        1.8048820232
  C         2.3375795975        1.3288784632        2.5622098024
  C         1.7435936471        1.8421897651        0.1040188041
       8
 i =       10, E =       -45.3051927913
  C         1.1136047958        2.5336006755        2.3509803788
  C         0.5101782884       -0.5657622476        0.0338725353
  C         0.7987445276        0.6317878807        0.8702947425
  C        -0.3601035049        1.6853772054        1.8921113998
  C         2.9669437714        2.8069724436        0.8546374804
  C         1.8448264773        0.2453219786        1.8009194178
  C         2.2072211565        1.3596799827        2.6988239303
  C         1.6329107301        2.0041335414        0.2133858691
       8
 i =       11, E =       -45.2436262312
  C         1.2694156695        2.3643101934        2.1169210194
  C         0.6680781461       -0.6660261831        0.1090510408
  C         0.9179776789        0.6641191602        0.8777651591
  C        -0.4624520156        1.7332374886        1.7900721201
  C         2.8857055184        2.7687062606        0.9914613164
  C         1.7520079351        0.2670660572        1.8635055504
  C         2.1503954157        1.4135806870        2.7058785394
  C         1.5411985217        2.1490329827        0.2744383784
       8
 i =       12, E =       -45.3471925998
  C         1.1224386753        2.5011402793        2.3190180086
  C         0.4494568028       -0.5211686993        0.1920800755
  C         0.9358035426        0.7187671112        0.8717172349
  C        -0.2709259419        1.7750453579        1.7903397437
  C         2.8043398602        2.7218990038        0.9463793177
  C         1.7758789577        0.1401320362        1.8660249324
  C         2.2476934014        1.3702259067        2.5523267469
  C         1.6561272244        1.9960372393        0.1893378754
       8
 i =       13, E =       -45.3574119071
  C         1.1539910389        2.5337656195        2.3128135267
  C         0.5182518784       -0.5244172897        0.0684855745
  C         0.8034440029        0.6782539333        0.9023486823
  C        -0.2884100955        1.7118590228        1.9326873822
  C         2.9768652927        2.7875343466        0.8046348199
  C         1.8730602213        0.0975147692        1.7622744684
  C         2.0975592109        1.4071271821        2.6133133850
  C         1.5823853476        2.0064376257        0.3309333667
       8
 i =       14, E =       -45.3994560317
  C         1.1302361163        2.4915095731        2.2833285796
  C         0.4944339618       -0.5991313172        0.1268363301
  C         0.8519518252        0.6592244228        0.8323190519
  C        -0.2484337689        1.7244694656        1.8282846993
  C         2.8924410809        2.7867139363        0.8999364973
  C         1.8254493800        0.1489178057        1.8341672602
  C         2.1709423602        1.4470489396        2.5987244791
  C         1.6005750011        2.0379487700        0.3244294056
       8
 i =       15, E =       -45.4038885374
  C         1.1335173229        2.4962291509        2.2792064594
  C         0.5296726822       -0.5986855107        0.2318563283
  C         0.8875505658        0.7176565349        0.8882922430
  C        -0.2582968545        1.8233197043        1.8181532221
  C         2.8699738064        2.7122170403        0.8862446405
  C         1.7968304955        0.1100530849        1.7940934159
  C         2.1840768665        1.4136852656        2.5336129523
  C         1.5750880679        2.0208530832        0.3022721617
       8
 i =       16, E =       -45.4160741287
  C         1.1318759375        2.4814224562        2.2750002671
  C         0.5306634131       -0.6265008929        0.1773967124
  C         0.8599434183        0.6947641989        0.8654907405
  C        -0.2410877701        1.7937489911        1.8278288167
  C         2.8933373991        2.7504241011        0.8825194599
  C         1.8084095469        0.1149741412        1.8118388588
  C         2.1580117435        1.4546189673        2.5448863076
  C         1.5732822007        2.0297456224        0.3473918181
       8
 i =       17, E =       -45.4159458551
  C         1.0963440671        2.5040050209        2.2826495286
  C         0.5245397715       -0.6367045075        0.1795995760
  C         0.8639848272        0.6835715893        0.8527234251
  C        -0.2226476641        1.7819353770        1.8305000355
  C         2.9144050347        2.7392480982        0.8795163772
  C         1.8162968917        0.1177375499        1.8072072701
  C         2.1522504097        1.4550958476        2.5492475087
  C         1.5639379946        2.0455080337        0.3474135429
       8
 i =       18, E =       -45.4178473651
  C         1.1049895983        2.4884936217        2.2922607782
  C         0.5307577803       -0.6381933134        0.1652268748
  C         0.8587325252        0.6856159344        0.8594336744
  C        -0.2267861541        1.8013424911        1.8242677163
  C         2.9145496153        2.7469513454        0.8725240690
  C         1.8033528137        0.1155835378        1.8139737860
  C         2.1458820764        1.4609000022        2.5328614416
  C         1.5734754274        2.0267370534        0.3668576931
       8
 i =       19, E =       -45.4182145333
  C         1.1040017242        2.4932871065        2.2950493842
  C         0.5332093210       -0.6411463664        0.1635555051
  C         0.8644088701        0.6914688108        0.8605661230
  C        -0.2289040535        1.8036853522        1.8251725634
  C         2.9084852137        2.7403425314        0.8687575460
  C         1.8010749283        0.1146401897        1.8165835011
  C         2.1423494141        1.4589530841        2.5303495921
  C         1.5747225280        2.0230830592        0.3664728993
       8
 i =       20, E =       -45.4185944531
  C         1.0952765670        2.5019670180        2.3041553476
  C         0.5369986818       -0.6495883106        0.1554617817
  C         0.8724924317        0.6918888706        0.8586912246
  C        -0.2347577967        1.8044472148        1.8236084116
  C         2.9055837841        2.7286306629        0.8609450204
  C         1.7965887675        0.1195309933        1.8215417757
  C         2.1333442970        1.4595471892        2.5271640605
  C         1.5779212283        2.0176865528        0.3713020649
       8
 i =       21, E =       -45.4186668627
  C         1.0895545619        2.5050556517        2.3083423578
  C         0.5379852828       -0.6535729600        0.1519786917
  C         0.8742430929        0.6895169077        0.8564119009
  C        -0.2379971319        1.8012354429        1.8235556034
  C         2.9057395130        2.7236533321        0.8571384129
  C         1.7952007884        0.1220719009        1.8234633611
  C         2.1295125084        1.4619063769        2.5266939476
  C         1.5789080788        2.0160866692        0.3726204764
       8
 i =       22, E =       -45.4186810836
  C         1.0878409273        2.5049890519        2.3087433545
  C         0.5374695879       -0.6548391905        0.1515327877
  C         0.8733056341        0.6874610086        0.8552664720
  C        -0.2395771566        1.7989522684        1.8235389826
  C         2.9056258140        2.7210493944        0.8561926802
  C         1.7947629191        0.1226954782        1.8234689721
  C         2.1283145297        1.4636080290        2.5268164198
  C         1.5783552143        2.0152261564        0.3725171618
       8
 i =       23, E =       -45.4186855194
  C         1.0863506037        2.5039587194        2.3089009199
  C         0.5370742961       -0.6555284666        0.1517256659
  C         0.8719583776        0.6863974059        0.8548223714
  C        -0.2408270997        1.7976374468        1.8232825308
  C         2.9049545073        2.7199839332        0.8551803752
  C         1.7936059403        0.1219008366        1.8233239689
  C         2.1278651625        1.4635460240        2.5266904397
  C         1.5779083534        2.0139962542        0.3717880634
       8
 i =       24, E =       -45.4186896065
  C         1.0850874313        2.5024771089        2.3080262510
  C         0.5358116969       -0.6565438510        0.1517039605
  C         0.8701662268        0.6849839696        0.8543667293
  C        -0.2421080865        1.7959535025        1.8229024186
  C         2.9037204838        2.7178980093        0.8547557139
  C         1.7920104913        0.1204620890        1.8228079325
  C         2.1264460891        1.4629829934        2.5264818314
  C         1.5766957164        2.0123775827        0.3710153448
       8
 i =       25, E =       -45.4186970965
  C         1.0818348611        2.4991563737        2.3064303790
  C         0.5330060391       -0.6596567324        0.1512524963
  C         0.8661670098        0.6818174191        0.8535984470
  C        -0.2450978279        1.7928480694        1.8216406319
  C         2.9004967357        2.7140960212        0.8532763596
  C         1.7880526065        0.1169551914        1.8219301023
  C         2.1232878852        1.4603369342        2.5259112712
  C         1.5738923430        2.0084102582        0.3692539103
       8
 i =       26, E =       -45.4187071243
  C         1.0759268015        2.4932413158        2.3035450526
  C         0.5274242724       -0.6656649042        0.1497487083
  C         0.8596668213        0.6760454283        0.8521608233
  C        -0.2505551854        1.7870848860        1.8193804845
  C         2.8947954236        2.7076620959        0.8508866998
  C         1.7809310843        0.1106021473        1.8203860620
  C         2.1168778417        1.4545578806        2.5246598129
  C         1.5686427685        2.0017184103        0.3662196371
       8
 i =       27, E =       -45.4187139328
  C         1.0725892977        2.4899141909        2.3020152341
  C         0.5236476658       -0.6698903910        0.1482947946
  C         0.8560112282        0.6722975509        0.8512627414
  C        -0.2537754970        1.7839873981        1.8179169887
  C         2.8911668940        2.7042873154        0.8494723483
  C         1.7771641707        0.1070707337        1.8194708604
  C         2.1131031646        1.4504204946        2.5236233797
  C         1.5650136559        1.9978480181        0.3645653524
       8
 i =       28, E =       -45.4187193494
  C         1.0704790213        2.4877671707        2.3013539613
  C         0.5209681463       -0.6726411390        0.1467173176
  C         0.8545090681        0.6699585124        0.8504214087
  C        -0.2560241133        1.7818756947        1.8169888159
  C         2.8890402317        2.7028074612        0.8487120317
  C         1.7752491818        0.1049596946        1.8187133493
  C         2.1105901625        1.4471333615        2.5223808742
  C         1.5624779943        1.9960750318        0.3637730640
       8
 i =       29, E =       -45.4187214251
  C         1.0700138912        2.4871530243        2.3013765072
  C         0.5200122909       -0.6734523043        0.1459589173
  C         0.8541461074        0.6691871040        0.8498309218
  C        -0.2567446936        1.7812602571        1.8166556280
  C         2.8882494270        2.7024377997        0.8484578247
  C         1.7753022614        0.1045424215        1.8180929965
  C         2.1102275724        1.4462196291        2.5215830453
  C         1.5613777215        1.9957033963        0.3637340027
       8
 i =       30, E =       -45.4187214248
  C         1.0700138912        2.4871530243        2.3013765072
  C         0.5200122909       -0.6734523043        0.1459589173
  C         0.8541461074        0.6691871040        0.8498309218
  C        -0.2567446936        1.7812602571        1.8166556280
  C         2.8882494270        2.7024377997        0.8484578247
  C         1.7753022614        0.1045424215        1.8180929965
  C         2.1102275724        1.4462196291        2.5215830453
  C         1.5613777215        1.9957033963        0.3637340027
