#     Step Nr.          Time[fs]        Kin.[a.u.]          Temp[K]            Pot.[a.u.]        Cons Qty[a.u.]        UsedTime[s]
         0            0.000000         0.000475022       100.000000000       -17.219267542       -17.218792520         0.000000000
         1            0.500000         0.000558097       117.488581151       -17.219387541       -17.218794234        86.274737365
         2            1.000000         0.000578530       121.790020584       -17.219486140       -17.218795699        33.854561475
         3            1.500000         0.000652600       137.382945635       -17.219551050       -17.218796578        32.653481132
         4            2.000000         0.000614328       129.326235375       -17.219569527       -17.218796636        28.790094469
         5            2.500000         0.000574056       120.848184028       -17.219547303       -17.218795998        23.936823760
         6            3.000000         0.000619786       130.475109395       -17.219486105       -17.218794754        28.586959958
         7            3.500000         0.000521114       109.703042085       -17.219404783       -17.218793414        44.266650423
         8            4.000000         0.000484995       102.099447778       -17.219324552       -17.218792502        43.870300459
         9            4.500000         0.000395652        83.291193117       -17.219262917       -17.218792347        40.902113310
        10            5.000000         0.000315287        66.372996182       -17.219215227       -17.218792867        36.335282403
        11            5.500000         0.000284855        59.966637514       -17.219180900       -17.218793619        41.765886376
        12            6.000000         0.000269509        56.736173536       -17.219150302       -17.218794208        29.197021599
        13            6.500000         0.000236074        49.697502255       -17.219108055       -17.218794223        30.491210371
        14            7.000000         0.000151096        31.808170991       -17.219056570       -17.218793443        43.588726174
        15            7.500000         0.000114871        24.182215822       -17.219016337       -17.218792386        37.235632179
        16            8.000000         0.000087727        18.468059743       -17.218996836       -17.218791378        38.810274595
        17            8.500000         0.000095554        20.115733657       -17.219016402       -17.218791065        33.890626297
        18            9.000000         0.000162932        34.299805605       -17.219081259       -17.218791686        43.493461411
        19            9.500000         0.000278207        58.567098154       -17.219187935       -17.218793123        43.652464662
        20           10.000000         0.000416216        87.620342702       -17.219307370       -17.218794769        41.498258443
        21           10.500000         0.000459198        96.668720529       -17.219412337       -17.218796011        43.823625623
        22           11.000000         0.000479982       101.044131575       -17.219477435       -17.218796449        30.594031424
        23           11.500000         0.000580773       122.262279872       -17.219508325       -17.218796174        44.253971779
        24           12.000000         0.000638684       134.453411799       -17.219507422       -17.218795364        29.264729890
        25           12.500000         0.000602945       126.929776213       -17.219486438       -17.218794455        35.905863375
        26           13.000000         0.000482322       101.536756088       -17.219461196       -17.218793916        39.619805750
        27           13.500000         0.000426633        89.813289045       -17.219443871       -17.218794014        28.473681042
        28           14.000000         0.000449196        94.563189630       -17.219432704       -17.218794667        40.603266271
        29           14.500000         0.000400225        84.253883480       -17.219417635       -17.218795483        40.269097798
        30           15.000000         0.000388036        81.687877127       -17.219383594       -17.218795983        36.838171219
        31           15.500000         0.000274808        57.851586796       -17.219327011       -17.218795795        45.079644512
        32           16.000000         0.000169309        35.642394795       -17.219267059       -17.218795183        44.644103922
        33           16.500000         0.000156009        32.842487045       -17.219196428       -17.218794220        32.677071496
        34           17.000000         0.000094731        19.942508172       -17.219140245       -17.218793299        28.322513334
        35           17.500000         0.000051294        10.798291678       -17.219113314       -17.218792808        26.315554325
        36           18.000000         0.000067228        14.152522883       -17.219120572       -17.218792890        42.921677590
        37           18.500000         0.000082546        17.377277899       -17.219160071       -17.218793532        42.364184121
        38           19.000000         0.000145409        30.610945835       -17.219217093       -17.218794502        33.439588376
        39           19.500000         0.000273644        57.606544963       -17.219297714       -17.218795706        32.985945747
        40           20.000000         0.000319297        67.217182643       -17.219363063       -17.218796299        29.929158468
        41           20.500000         0.000407190        85.720089696       -17.219406561       -17.218796162        35.465844025
        42           21.000000         0.000415026        87.369705669       -17.219429839       -17.218795425        29.097718937
        43           21.500000         0.000533084       112.222876975       -17.219439400       -17.218794465        40.907059063
        44           22.000000         0.000608820       128.166613578       -17.219445266       -17.218793723        42.117296923
        45           22.500000         0.000655990       138.096706301       -17.219453853       -17.218793556        41.868286541
        46           23.000000         0.000744969       156.828162564       -17.219463143       -17.218794022        29.147047420
        47           23.500000         0.000688631       144.968238940       -17.219462732       -17.218794845        28.805355129
        48           24.000000         0.000748835       157.642067945       -17.219440882       -17.218795629        33.059798050
        49           24.500000         0.000690084       145.273965781       -17.219380011       -17.218795920        44.310483611
        50           25.000000         0.000577618       121.598148101       -17.219276703       -17.218795332        31.107068634
        51           25.500000         0.000479819       101.009775329       -17.219123900       -17.218793684        29.216994170
        52           26.000000         0.000430245        90.573684954       -17.218942370       -17.218791189        44.713027336
        53           26.500000         0.000239381        50.393675168       -17.218746793       -17.218788245        31.966865548
        54           27.000000         0.000146300        30.798501215       -17.218607960       -17.218786333        41.067076619
        55           27.500000         0.000098448        20.724958650       -17.218554025       -17.218786279        28.895071567
        56           28.000000         0.000152196        32.039687208       -17.218581511       -17.218787983        37.104728653
        57           28.500000         0.000202227        42.572197506       -17.218664568       -17.218790389        28.962819885
        58           29.000000         0.000279032        58.740779250       -17.218760792       -17.218792139        33.058840929
        59           29.500000         0.000370651        78.028022682       -17.218849982       -17.218792694        29.565290146
        60           30.000000         0.000424687        89.403521911       -17.218921119       -17.218792124        33.892060392
        61           30.500000         0.000486031       102.317541445       -17.218986815       -17.218790993        32.332635490
        62           31.000000         0.000546003       114.942501634       -17.219059099       -17.218790222        30.232113163
        63           31.500000         0.000570747       120.151681926       -17.219159148       -17.218790309        33.183141685
        64           32.000000         0.000685683       144.347439665       -17.219275815       -17.218791387        40.539046959
        65           32.500000         0.000829376       174.597338911       -17.219406057       -17.218793286        38.023990748
        66           33.000000         0.001014458       213.560073641       -17.219524219       -17.218795459        30.186182030
        67           33.500000         0.001188127       250.120244063       -17.219585701       -17.218796943        28.789853107
        68           34.000000         0.001322436       278.394579599       -17.219559316       -17.218796961        34.570808706
        69           34.500000         0.001023264       215.413871991       -17.219439755       -17.218795098        34.246170455
        70           35.000000         0.000781236       164.462932823       -17.219267370       -17.218792176        28.823558217
        71           35.500000         0.000631251       132.888646836       -17.219076431       -17.218789230        29.103571798
        72           36.000000         0.000452017        95.157103121       -17.218927276       -17.218787788        28.965105756
        73           36.500000         0.000326646        68.764312326       -17.218841754       -17.218788359        29.148363353
        74           37.000000         0.000276956        58.303757684       -17.218811385       -17.218790305        31.233115135
        75           37.500000         0.000326106        68.650625468       -17.218804717       -17.218792349        32.157356381
        76           38.000000         0.000255837        53.857826701       -17.218792292       -17.218793208        34.266924749
        77           38.500000         0.000243009        51.157426235       -17.218758729       -17.218792447        37.352375000
        78           39.000000         0.000229004        48.209110225       -17.218705282       -17.218790182        30.190247400
        79           39.500000         0.000204707        43.094150906       -17.218663062       -17.218787558        29.055705083
        80           40.000000         0.000170579        35.909652133       -17.218674845       -17.218786016        29.174382383
        81           40.500000         0.000297936        62.720346199       -17.218765468       -17.218786194        31.144941052
        82           41.000000         0.000488640       102.866659251       -17.218932686       -17.218788174        44.544758506
        83           41.500000         0.000745050       156.845182189       -17.219150223       -17.218791441        41.269047768
        84           42.000000         0.001022239       215.198183484       -17.219364750       -17.218794849        45.005807482
        85           42.500000         0.001231711       259.295410652       -17.219516427       -17.218796965        44.097600430
        86           43.000000         0.001197121       252.013644521       -17.219558612       -17.218796663        36.165381488
        87           43.500000         0.001225340       257.954292855       -17.219501395       -17.218794125        37.086970357
        88           44.000000         0.001143541       240.734075729       -17.219379830       -17.218790533        42.628562449
        89           44.500000         0.000916189       192.872906596       -17.219249540       -17.218787845        34.633367587
        90           45.000000         0.000805134       169.493990104       -17.219152396       -17.218787484        42.885335821
        91           45.500000         0.000703116       148.017501939       -17.219103271       -17.218789343        44.440202397
        92           46.000000         0.000665763       140.154019016       -17.219070800       -17.218792077        44.341754752
        93           46.500000         0.000624517       131.470999714       -17.219012340       -17.218793777        41.328437914
        94           47.000000         0.000586578       123.484411732       -17.218895157       -17.218793243        36.772050261
        95           47.500000         0.000442807        93.218224792       -17.218714433       -17.218790356        27.292283507
        96           48.000000         0.000185316        39.012087644       -17.218518309       -17.218786445        37.035934689
        97           48.500000         0.000057816        12.171288326       -17.218393253       -17.218783666        30.545370019
        98           49.000000         0.000023066         4.855814677       -17.218367645       -17.218782709        24.128615068
        99           49.500000         0.000122771        25.845379028       -17.218458033       -17.218783887        29.076276689
       100           50.000000         0.000280975        59.149857091       -17.218638269       -17.218786771        35.988447397
       101           50.500000         0.000559109       117.701638127       -17.218872628       -17.218790579        29.262908057
       102           51.000000         0.000835516       175.889857751       -17.219102776       -17.218793993        36.774607878
       103           51.500000         0.001043953       219.769273079       -17.219265630       -17.218795498        38.970862062
       104           52.000000         0.001160410       244.285314026       -17.219335807       -17.218794327        42.287262427
       105           52.500000         0.000957797       201.632016348       -17.219329243       -17.218791286        29.205504974
       106           53.000000         0.001048319       220.688387327       -17.219300421       -17.218788169        34.349387151
       107           53.500000         0.001023513       215.466270320       -17.219290906       -17.218786800        44.511848579
       108           54.000000         0.000977421       205.763160338       -17.219321436       -17.218788305        44.467680749
       109           54.500000         0.001027310       216.265728246       -17.219373378       -17.218791797        44.122328219
       110           55.000000         0.001091553       229.789759886       -17.219393237       -17.218795117        32.000798311
       111           55.500000         0.001034743       217.830378928       -17.219328264       -17.218796202        32.012095385
       112           56.000000         0.000942860       198.487622027       -17.219158198       -17.218794333        37.539076452
       113           56.500000         0.000616004       129.678985834       -17.218914066       -17.218790382        35.431543430
       114           57.000000         0.000392088        82.540947652       -17.218657752       -17.218785996        44.538996977
       115           57.500000         0.000127238        26.785748557       -17.218459026       -17.218782874        30.879867561
       116           58.000000         0.000035612         7.496853235       -17.218397872       -17.218782481        34.513842715
       117           58.500000         0.000073216        15.413122401       -17.218453411       -17.218784376        29.243674185
       118           59.000000         0.000193151        40.661403668       -17.218596054       -17.218787966        44.485437492
       119           59.500000         0.000348576        73.380985145       -17.218767705       -17.218791769        41.051677722
       120           60.000000         0.000349311        73.535801236       -17.218904045       -17.218794058        39.838840413
       121           60.500000         0.000471511        99.260725863       -17.218993756       -17.218794442        36.164541742
       122           61.000000         0.000527557       111.059449198       -17.219046861       -17.218792932        35.111916681
       123           61.500000         0.000578493       121.782324575       -17.219080606       -17.218790460        39.483537952
       124           62.000000         0.000553959       116.617370441       -17.219134121       -17.218788698        37.725675295
       125           62.500000         0.000533781       112.369656974       -17.219228311       -17.218789144        37.602405790
       126           63.000000         0.000670729       141.199574026       -17.219368714       -17.218791756        44.529874754
       127           63.500000         0.000884219       186.142710668       -17.219519525       -17.218795334        44.023691971
       128           64.000000         0.000940590       198.009751124       -17.219617559       -17.218797902        36.802385047
       129           64.500000         0.000944097       198.747922501       -17.219625199       -17.218798346        30.074979937
       130           65.000000         0.000941162       198.130035347       -17.219533707       -17.218796580        25.664913408
       131           65.500000         0.000798193       168.032843160       -17.219363435       -17.218793366        29.158976740
       132           66.000000         0.000495592       104.330241853       -17.219184665       -17.218790385        44.367939391
       133           66.500000         0.000371722        78.253518045       -17.219021559       -17.218788311        44.316504922
       134           67.000000         0.000280072        58.959774468       -17.218917767       -17.218787893        30.449573818
       135           67.500000         0.000246272        51.844274293       -17.218879873       -17.218789080        42.733653377
       136           68.000000         0.000250148        52.660239922       -17.218888747       -17.218791257        44.227683705
       137           68.500000         0.000310423        65.349095550       -17.218911479       -17.218793352        29.314581889
       138           69.000000         0.000307005        64.629586776       -17.218909486       -17.218794388        41.872287822
       139           69.500000         0.000251004        52.840405082       -17.218862853       -17.218793137        34.498238799
       140           70.000000         0.000277778        58.476893641       -17.218790480       -17.218790005        31.157286945
       141           70.500000         0.000286737        60.362755671       -17.218709132       -17.218785176        36.892550689
       142           71.000000         0.000257266        54.158685998       -17.218694204       -17.218781672        51.387511657
       143           71.500000         0.000309985        65.256984583       -17.218797182       -17.218782102        34.516206343
       144           72.000000         0.000525399       110.605076235       -17.219008400       -17.218786363        38.461501291
       145           72.500000         0.000798932       168.188373441       -17.219269456       -17.218792354        43.988135366
       146           73.000000         0.000931330       196.060273659       -17.219492280       -17.218797133        30.937514690
       147           73.500000         0.001015230       213.722528588       -17.219597587       -17.218798589        28.519500080
       148           74.000000         0.000966309       203.423820268       -17.219571256       -17.218796670        36.644950094
       149           74.500000         0.000842507       177.361628435       -17.219444030       -17.218792691        37.227491595
       150           75.000000         0.000719664       151.501125442       -17.219276987       -17.218788432        29.194865668
       151           75.500000         0.000590735       124.359381200       -17.219122601       -17.218785268        31.445370311
       152           76.000000         0.000503997       106.099552836       -17.219044993       -17.218784621        43.758936383
       153           76.500000         0.000427325        89.958991833       -17.219053359       -17.218786542        44.475661004
       154           77.000000         0.000598692       126.034407887       -17.219117039       -17.218790305        44.204147339
       155           77.500000         0.000591321       124.482685238       -17.219177200       -17.218794330        35.837790297
       156           78.000000         0.000607876       127.967824179       -17.219170262       -17.218796473        24.754742720
       157           78.500000         0.000478399       100.710950841       -17.219065602       -17.218795256        26.039524516
       158           79.000000         0.000297063        62.536647284       -17.218892740       -17.218790931        38.273085917
       159           79.500000         0.000151604        31.915135183       -17.218697847       -17.218784926        36.917274664
       160           80.000000         0.000040494         8.524611021       -17.218570801       -17.218780312        44.269304554
       161           80.500000         0.000112397        23.661504170       -17.218581780       -17.218779767        44.509738081
       162           81.000000         0.000383543        80.742056673       -17.218788318       -17.218784799        52.165653751
       163           81.500000         0.000644602       135.699290477       -17.219078917       -17.218791717        40.496968915
       164           82.000000         0.000852514       179.468136784       -17.219314437       -17.218796275        35.805228152
       165           82.500000         0.000958820       201.847282920       -17.219431919       -17.218797079        32.411484106
       166           83.000000         0.001043350       219.642359557       -17.219424477       -17.218794546        31.802735466
       167           83.500000         0.000899714       189.404588172       -17.219314519       -17.218789779        35.719196475
       168           84.000000         0.000768339       161.748082083       -17.219186723       -17.218785567        46.850627643
       169           84.500000         0.000726766       152.996168500       -17.219094355       -17.218783032        31.354849064
       170           85.000000         0.000719878       151.546153740       -17.219080830       -17.218783226        44.161870577
       171           85.500000         0.000778245       163.833307750       -17.219143301       -17.218786066        44.358444406
       172           86.000000         0.000832343       175.221942759       -17.219237169       -17.218790373        29.652763075
       173           86.500000         0.000962704       202.665088617       -17.219300603       -17.218794636        28.503800858
       174           87.000000         0.001078928       227.132009362       -17.219249490       -17.218796439        39.248387443
       175           87.500000         0.000860935       181.240894399       -17.219047146       -17.218793588        36.224301284
       176           88.000000         0.000559620       117.809207804       -17.218723010       -17.218786362        28.832316170
       177           88.500000         0.000298574        62.854783523       -17.218395712       -17.218778053        44.215301177
       178           89.000000         0.000066503        14.000023777       -17.218182900       -17.218772869        43.990496592
       179           89.500000         0.000068495        14.419268707       -17.218185872       -17.218774100        29.741751945
       180           90.000000         0.000308009        64.840997238       -17.218373321       -17.218780460        31.110801909
       181           90.500000         0.000561022       118.104304544       -17.218665737       -17.218788578        36.697953546
       182           91.000000         0.000835051       175.791990908       -17.218903381       -17.218793455        36.363984086
       183           91.500000         0.000894369       188.279356861       -17.219019385       -17.218793541        31.817365900
       184           92.000000         0.000837580       176.324356582       -17.218995080       -17.218789640        35.487004128
       185           92.500000         0.000823093       173.274670268       -17.218902370       -17.218784384        36.039070812
       186           93.000000         0.000818146       172.233239973       -17.218809712       -17.218779369        44.218247449
       187           93.500000         0.000863391       181.757995803       -17.218790316       -17.218776705        41.323873982
       188           94.000000         0.000923727       194.459791124       -17.218885436       -17.218777605        41.159684097
       189           94.500000         0.001071464       225.560860897       -17.219080696       -17.218781988        44.153863775
       190           95.000000         0.001452010       305.672033774       -17.219308538       -17.218788498        33.865886188
       191           95.500000         0.001474581       310.423579519       -17.219468752       -17.218794639        42.651079464
       192           96.000000         0.001699531       357.779223216       -17.219457124       -17.218797078        33.919826459
       193           96.500000         0.001462819       307.947477415       -17.219225477       -17.218793391        43.980398079
       194           97.000000         0.001157397       243.651030503       -17.218822052       -17.218784089        40.095128485
       195           97.500000         0.000784286       165.105110691       -17.218375514       -17.218773279        42.469586177
       196           98.000000         0.000505523       106.420837544       -17.218059890       -17.218767217        44.160579664
       197           98.500000         0.000436427        91.874961652       -17.217958801       -17.218769001        33.282893398
       198           99.000000         0.000554959       116.828081323       -17.218052823       -17.218776680        37.374610776
       199           99.500000         0.000698332       147.010458910       -17.218223771       -17.218784869        28.486645309
       200          100.000000         0.000751848       158.276364722       -17.218338378       -17.218788953        42.291827300
       201          100.500000         0.000772963       162.721432170       -17.218344904       -17.218788137        40.623674228
       202          101.000000         0.000683558       143.900279227       -17.218249404       -17.218783513        36.582952686
       203          101.500000         0.000495000       104.205633745       -17.218128104       -17.218777825        28.945891034
       204          102.000000         0.000404745        85.205495971       -17.218070026       -17.218773394        31.319097000
       205          102.500000         0.000604025       127.157180781       -17.218143639       -17.218771946        34.524425544
       206          103.000000         0.000859342       180.905661969       -17.218384323       -17.218774229        36.884853008
       207          103.500000         0.001083166       228.024223949       -17.218721647       -17.218779556        42.185825407
       208          104.000000         0.001432807       301.629398410       -17.219080637       -17.218786300        38.761985362
       209          104.500000         0.001882850       396.370953439       -17.219375096       -17.218792222        39.274202930
       210          105.000000         0.002082436       438.386936270       -17.219504254       -17.218794355        44.101837598
       211          105.500000         0.001992615       419.478196222       -17.219418146       -17.218790981        39.899488792
       212          106.000000         0.001921312       404.467826852       -17.219171485       -17.218783767        39.047086197
       213          106.500000         0.001522232       320.454783654       -17.218878328       -17.218776743        29.194843086
       214          107.000000         0.001314321       276.686189069       -17.218628728       -17.218773330        30.930043462
       215          107.500000         0.001230332       259.005087276       -17.218486027       -17.218774837        44.279316213
       216          108.000000         0.001092446       229.977932765       -17.218428696       -17.218779342        37.852651067
       217          108.500000         0.001161574       244.530341322       -17.218388951       -17.218783664        36.817315433
       218          109.000000         0.001190664       250.654404395       -17.218281148       -17.218785155        43.868055251
       219          109.500000         0.000838058       176.425063710       -17.218076317       -17.218782809        41.817745824
       220          110.000000         0.000437031        92.002221060       -17.217832167       -17.218778254        37.886782222
       221          110.500000         0.000245944        51.775354876       -17.217650582       -17.218774012        43.840981026
       222          111.000000         0.000187994        39.575930759       -17.217584232       -17.218771309        34.774587257
       223          111.500000         0.000356901        75.133445005       -17.217671846       -17.218770962        44.199773415
       224          112.000000         0.000571876       120.389355163       -17.217911731       -17.218773577        36.620321314
       225          112.500000         0.000922204       194.139138226       -17.218253632       -17.218778524        42.829722469
       226          113.000000         0.001411970       297.242801935       -17.218653587       -17.218784750        31.020565513
       227          113.500000         0.001706392       359.223464449       -17.218987809       -17.218789339        39.160736923