#     Step Nr.          Time[fs]        Kin.[a.u.]          Temp[K]            Pot.[a.u.]        Cons Qty[a.u.]        UsedTime[s]
         0            0.000000         0.000475022       100.000000000       -17.219267542       -17.218792520         0.000000000
         1            0.500000         0.000558097       117.488581151       -17.219387541       -17.218794234       119.038750480
         2            1.000000         0.000578530       121.790020584       -17.219486140       -17.218795699        41.034386068
         3            1.500000         0.000652600       137.382945635       -17.219551050       -17.218796578        40.524582187
         4            2.000000         0.000614328       129.326235375       -17.219569527       -17.218796636        40.553692349
         5            2.500000         0.000574056       120.848184028       -17.219547303       -17.218795998        34.326146735
         6            3.000000         0.000619786       130.475109395       -17.219486105       -17.218794754        40.376453695
         7            3.500000         0.000521114       109.703042085       -17.219404783       -17.218793414        40.568272377
         8            4.000000         0.000484995       102.099447778       -17.219324552       -17.218792502        40.875878315
         9            4.500000         0.000395652        83.291193117       -17.219262917       -17.218792347        40.288766624
        10            5.000000         0.000315287        66.372996181       -17.219215227       -17.218792867        40.435958639
        11            5.500000         0.000284855        59.966637514       -17.219180900       -17.218793619        40.395075750
        12            6.000000         0.000269509        56.736173536       -17.219150302       -17.218794208        33.881553024
        13            6.500000         0.000236074        49.697502255       -17.219108055       -17.218794223        40.251499444
        14            7.000000         0.000151096        31.808170991       -17.219056570       -17.218793443        40.549613105
        15            7.500000         0.000114871        24.182215822       -17.219016337       -17.218792386        40.682891766
        16            8.000000         0.000087727        18.468059743       -17.218996836       -17.218791378        40.618587738
        17            8.500000         0.000095554        20.115733657       -17.219016402       -17.218791065        41.046908936
        18            9.000000         0.000162932        34.299805605       -17.219081259       -17.218791686        40.653259472
        19            9.500000         0.000278207        58.567098154       -17.219187935       -17.218793123        40.764636202
        20           10.000000         0.000416216        87.620342702       -17.219307370       -17.218794769        40.532793601
        21           10.500000         0.000459198        96.668720529       -17.219412337       -17.218796011        40.502655910
        22           11.000000         0.000479982       101.044131575       -17.219477435       -17.218796449        40.722982906
        23           11.500000         0.000580773       122.262279872       -17.219508325       -17.218796174        40.344458330
        24           12.000000         0.000638684       134.453411799       -17.219507422       -17.218795364        40.665827815
        25           12.500000         0.000602945       126.929776214       -17.219486438       -17.218794455        40.462103054
        26           13.000000         0.000482322       101.536756089       -17.219461196       -17.218793916        40.506716753
        27           13.500000         0.000426633        89.813289046       -17.219443871       -17.218794014        40.759973938
        28           14.000000         0.000449196        94.563189631       -17.219432704       -17.218794667        40.594028274
        29           14.500000         0.000400225        84.253883481       -17.219417635       -17.218795483        40.374544077
        30           15.000000         0.000388036        81.687877128       -17.219383594       -17.218795983        33.806714989
        31           15.500000         0.000274808        57.851586797       -17.219327011       -17.218795795        40.573846522
        32           16.000000         0.000169309        35.642394796       -17.219267059       -17.218795183        40.865485767
        33           16.500000         0.000156009        32.842487046       -17.219196428       -17.218794220        40.702954628
        34           17.000000         0.000094731        19.942508172       -17.219140245       -17.218793299        41.240577365
        35           17.500000         0.000051294        10.798291678       -17.219113314       -17.218792808        35.335004944
        36           18.000000         0.000067228        14.152522883       -17.219120572       -17.218792890        43.193409500
        37           18.500000         0.000082546        17.377277899       -17.219160071       -17.218793532        41.980228365
        38           19.000000         0.000145409        30.610945835       -17.219217093       -17.218794502        40.502173350
        39           19.500000         0.000273644        57.606544963       -17.219297714       -17.218795706        40.294615872
        40           20.000000         0.000319297        67.217182644       -17.219363063       -17.218796299        40.704260406
        41           20.500000         0.000407190        85.720089696       -17.219406561       -17.218796162        34.653392395
        42           21.000000         0.000415026        87.369705669       -17.219429839       -17.218795425        40.724888776
        43           21.500000         0.000533084       112.222876975       -17.219439400       -17.218794465        40.404740015
        44           22.000000         0.000608820       128.166613579       -17.219445266       -17.218793723        40.721484511
        45           22.500000         0.000655990       138.096706303       -17.219453853       -17.218793556        40.127817643
        46           23.000000         0.000744969       156.828162566       -17.219463143       -17.218794022        40.770031219
        47           23.500000         0.000688631       144.968238941       -17.219462732       -17.218794845        40.677655458
        48           24.000000         0.000748835       157.642067946       -17.219440882       -17.218795629        40.533242510
        49           24.500000         0.000690084       145.273965781       -17.219380011       -17.218795920        40.173495643
        50           25.000000         0.000577618       121.598148101       -17.219276703       -17.218795332        40.916762025
        51           25.500000         0.000479819       101.009775329       -17.219123900       -17.218793684        41.093374281
        52           26.000000         0.000430245        90.573684954       -17.218942370       -17.218791189        40.172110243
        53           26.500000         0.000239381        50.393675169       -17.218746793       -17.218788245        40.724879844
        54           27.000000         0.000146300        30.798501215       -17.218607960       -17.218786333        40.859234730
        55           27.500000         0.000098448        20.724958650       -17.218554025       -17.218786279        40.634552675
        56           28.000000         0.000152196        32.039687208       -17.218581511       -17.218787983        40.712702277
        57           28.500000         0.000202227        42.572197506       -17.218664568       -17.218790389        41.361297234
        58           29.000000         0.000279032        58.740779249       -17.218760792       -17.218792139        40.754882738
        59           29.500000         0.000370651        78.028022682       -17.218849982       -17.218792694        33.960458074
        60           30.000000         0.000424687        89.403521911       -17.218921119       -17.218792124        40.700713667
        61           30.500000         0.000486031       102.317541445       -17.218986815       -17.218790993        34.071577969
        62           31.000000         0.000546003       114.942501635       -17.219059099       -17.218790222        40.911069493
        63           31.500000         0.000570747       120.151681927       -17.219159148       -17.218790309        33.589995327
        64           32.000000         0.000685683       144.347439666       -17.219275815       -17.218791387        40.278674388
        65           32.500000         0.000829376       174.597338912       -17.219406057       -17.218793286        40.505535609
        66           33.000000         0.001014458       213.560073641       -17.219524219       -17.218795459        40.540758352
        67           33.500000         0.001188127       250.120244063       -17.219585701       -17.218796943        40.385451762
        68           34.000000         0.001322436       278.394579598       -17.219559316       -17.218796961        40.390791121
        69           34.500000         0.001023264       215.413871990       -17.219439755       -17.218795098        40.817873728
        70           35.000000         0.000781236       164.462932823       -17.219267370       -17.218792176        40.550933369
        71           35.500000         0.000631251       132.888646837       -17.219076431       -17.218789230        40.665420433
        72           36.000000         0.000452017        95.157103121       -17.218927276       -17.218787788        40.707267928
        73           36.500000         0.000326646        68.764312326       -17.218841754       -17.218788359        40.626071074
        74           37.000000         0.000276956        58.303757684       -17.218811385       -17.218790305        40.646843753
        75           37.500000         0.000326106        68.650625467       -17.218804717       -17.218792349        40.951956795
        76           38.000000         0.000255837        53.857826701       -17.218792292       -17.218793208        40.640240864
        77           38.500000         0.000243009        51.157426235       -17.218758729       -17.218792447        33.742370518
        78           39.000000         0.000229004        48.209110225       -17.218705282       -17.218790182        40.695128888
        79           39.500000         0.000204707        43.094150907       -17.218663062       -17.218787558        40.661718540
        80           40.000000         0.000170579        35.909652133       -17.218674845       -17.218786016        40.491799882
        81           40.500000         0.000297936        62.720346199       -17.218765468       -17.218786194        40.886083445
        82           41.000000         0.000488640       102.866659252       -17.218932686       -17.218788174        40.832323577
        83           41.500000         0.000745050       156.845182191       -17.219150223       -17.218791441        40.493531982
        84           42.000000         0.001022239       215.198183485       -17.219364750       -17.218794849        42.748905577
        85           42.500000         0.001231711       259.295410653       -17.219516427       -17.218796965        53.298117836
        86           43.000000         0.001197121       252.013644522       -17.219558612       -17.218796663        78.043555604
        87           43.500000         0.001225340       257.954292856       -17.219501395       -17.218794125        72.084093339
        88           44.000000         0.001143541       240.734075730       -17.219379830       -17.218790533        80.003182708
        89           44.500000         0.000916189       192.872906597       -17.219249540       -17.218787845        60.976922001
        90           45.000000         0.000805134       169.493990105       -17.219152396       -17.218787484        59.764436708
        91           45.500000         0.000703116       148.017501939       -17.219103271       -17.218789343        67.764952563
        92           46.000000         0.000665763       140.154019016       -17.219070800       -17.218792077        96.334479728
        93           46.500000         0.000624517       131.470999714       -17.219012340       -17.218793777        94.464213189
        94           47.000000         0.000586578       123.484411732       -17.218895157       -17.218793243        75.803833707
        95           47.500000         0.000442807        93.218224792       -17.218714433       -17.218790356        75.139681988
        96           48.000000         0.000185316        39.012087644       -17.218518309       -17.218786445        69.275864618
        97           48.500000         0.000057816        12.171288326       -17.218393253       -17.218783666        76.440204274
        98           49.000000         0.000023066         4.855814677       -17.218367645       -17.218782709        35.795980747
        99           49.500000         0.000122771        25.845379029       -17.218458033       -17.218783887        49.494334506
       100           50.000000         0.000280975        59.149857091       -17.218638269       -17.218786771        64.531203288
       101           50.500000         0.000559109       117.701638127       -17.218872628       -17.218790579        88.589752275
       102           51.000000         0.000835516       175.889857751       -17.219102776       -17.218793993        48.410738335
       103           51.500000         0.001043953       219.769273079       -17.219265630       -17.218795498        60.383980644
       104           52.000000         0.001160410       244.285314026       -17.219335807       -17.218794327        55.912370280
       105           52.500000         0.000957797       201.632016350       -17.219329243       -17.218791286        62.874524736
       106           53.000000         0.001048319       220.688387329       -17.219300421       -17.218788169        66.333192897
       107           53.500000         0.001023513       215.466270322       -17.219290906       -17.218786800        94.253075187
       108           54.000000         0.000977421       205.763160340       -17.219321436       -17.218788305        70.692639325
       109           54.500000         0.001027310       216.265728247       -17.219373378       -17.218791797        51.539323191
       110           55.000000         0.001091553       229.789759887       -17.219393237       -17.218795117        57.416076191
       111           55.500000         0.001034743       217.830378929       -17.219328264       -17.218796202        43.277911764
       112           56.000000         0.000942860       198.487622029       -17.219158198       -17.218794333        50.099331115
       113           56.500000         0.000616004       129.678985836       -17.218914066       -17.218790382        62.842606681
       114           57.000000         0.000392088        82.540947653       -17.218657752       -17.218785996        81.134949158
       115           57.500000         0.000127238        26.785748558       -17.218459026       -17.218782874        42.532638078
       116           58.000000         0.000035612         7.496853235       -17.218397872       -17.218782481        64.164457717
       117           58.500000         0.000073216        15.413122401       -17.218453411       -17.218784376        48.226062098
       118           59.000000         0.000193151        40.661403667       -17.218596054       -17.218787966        83.722797643
       119           59.500000         0.000348576        73.380985144       -17.218767705       -17.218791769        57.482795973
       120           60.000000         0.000349311        73.535801235       -17.218904045       -17.218794058        66.328861003
       121           60.500000         0.000471511        99.260725863       -17.218993756       -17.218794442        44.659741033
       122           61.000000         0.000527557       111.059449199       -17.219046861       -17.218792932        94.857027947
