 DBCSR| Multiplication driver                                               BLAS
 DBCSR| Multrec recursion limit                                              512
 DBCSR| Multiplication stack size                                           1000
 DBCSR| Maximum elements for images                                    UNLIMITED
 DBCSR| Multiplicative factor virtual images                                   1
 DBCSR| Multiplication size stacks                                             3


  **** **** ******  **  PROGRAM STARTED AT               2020-05-18 23:43:23.041
 ***** ** ***  *** **   PROGRAM STARTED ON                                 sheep
 **    ****   ******    PROGRAM STARTED BY                                 sim03
 ***** **    ** ** **   PROGRAM PROCESS ID                               3455714
  **** **  *******  **  PROGRAM STARTED IN /auto.eland/home/sim03/Documents/SimP
                                           hys/Summer/2/cp2k/MONOMER_MD_TEST_100
                                           K

 CP2K| version string:                                          CP2K version 5.1
 CP2K| source code revision number:                                    svn:18091
 CP2K| cp2kflags: fftw3 max_contr=4                                             
 CP2K| is freely available from                            https://www.cp2k.org/
 CP2K| Program compiled at                         Thu May  9 16:52:28 CEST 2019
 CP2K| Program compiled on                                                  cip0
 CP2K| Program compiled for                                                 icp2
 CP2K| Data directory path          /auto.eland/group/allatom/cp2k/cp2k-5.1/data
 CP2K| Input file name                                      water_monomer_md.inp

 GLOBAL| Force Environment number                                              1
 GLOBAL| Basis set file name                                      ./BASIS_MOLOPT
 GLOBAL| Potential file name                                    ./GTH_POTENTIALS
 GLOBAL| MM Potential file name                                     MM_POTENTIAL
 GLOBAL| Coordinate file name                                  water-monomer.xyz
 GLOBAL| Method name                                                        CP2K
 GLOBAL| Project name                                             water_dimer_md
 GLOBAL| Preferred FFT library                                             FFTW3
 GLOBAL| Preferred diagonalization lib.                                       SL
 GLOBAL| Run type                                                             MD
 GLOBAL| All-to-all communication in single precision                          F
 GLOBAL| FFTs using library dependent lengths                                  F
 GLOBAL| Global print level                                                  LOW
 GLOBAL| Total number of message passing processes                             1
 GLOBAL| Number of threads for this process                                    1
 GLOBAL| This output is from process                                           0
 GLOBAL| CPU model name :  Intel(R) Core(TM) i7-3930K CPU @ 3.20GHz

 MEMORY| system memory details [Kb]
 MEMORY|                        rank 0           min           max       average
 MEMORY| MemTotal              8112104       8112104       8112104       8112104
 MEMORY| MemFree               1310540       1310540       1310540       1310540
 MEMORY| Buffers                 85836         85836         85836         85836
 MEMORY| Cached                2193572       2193572       2193572       2193572
 MEMORY| Slab                   336560        336560        336560        336560
 MEMORY| SReclaimable           251808        251808        251808        251808
 MEMORY| MemLikelyFree         3841756       3841756       3841756       3841756


 GENERATE|  Preliminary Number of Bonds generated:                             0
 GENERATE|  Achieved consistency in connectivity generation.

 *******************************************************************************
 *******************************************************************************
 **                                                                           **
 **     #####                         ##              ##                      **
 **    ##   ##            ##          ##              ##                      **
 **   ##     ##                       ##            ######                    **
 **   ##     ##  ##   ##  ##   #####  ##  ##   ####   ##    #####    #####    **
 **   ##     ##  ##   ##  ##  ##      ## ##   ##      ##   ##   ##  ##   ##   **
 **   ##  ## ##  ##   ##  ##  ##      ####     ###    ##   ######   ######    **
 **    ##  ###   ##   ##  ##  ##      ## ##      ##   ##   ##       ##        **
 **     #######   #####   ##   #####  ##  ##  ####    ##    #####   ##        **
 **           ##                                                    ##        **
 **                                                                           **
 **                                                ... make the atoms dance   **
 **                                                                           **
 **            Copyright (C) by CP2K developers group (2000 - 2017)           **
 **                                                                           **
 *******************************************************************************


 SCF PARAMETERS         Density guess:                                    ATOMIC
                        --------------------------------------------------------
                        max_scf:                                              50
                        max_scf_history:                                       0
                        max_diis:                                              4
                        --------------------------------------------------------
                        eps_scf:                                        1.00E-06
                        eps_scf_history:                                0.00E+00
                        eps_diis:                                       1.00E-01
                        eps_eigval:                                     1.00E-05
                        --------------------------------------------------------
                        level_shift [a.u.]:                                 0.00
                        --------------------------------------------------------
                        Outer loop SCF in use 
                        No variables optimised in outer loop
                        eps_scf                                         1.00E-06
                        max_scf                                               50
                        No outer loop optimization
                        step_size                                       5.00E-01

 MD| Molecular Dynamics Protocol 
 MD| Ensemble Type                                                           NVT
 MD| Number of Time Steps                                                   2000
 MD| Time Step [fs]                                                         0.50
 MD| Temperature [K]                                                      100.00
 MD| Temperature tolerance [K]                                              0.00
 MD| Print MD information every                                        1 step(s)
 MD| File type     Print frequency[steps]                             File names
 MD| Coordinates            1                           water_dimer_md-pos-1.xyz
 MD| Velocities             1                           water_dimer_md-vel-1.xyz
 MD| Energies               1                              water_dimer_md-1.ener
 MD| Dump                  20                           water_dimer_md-1.restart

 ROT| Rotational Analysis Info 
 ROT| Principal axes and moments of inertia in atomic units:
 ROT|                                1                 2                 3
 ROT| EIGENVALUES            0.378558736E+04   0.781823421E+04   0.116038216E+05
 ROT|      X                     0.015420980      -0.503682221       0.863751361
 ROT|      Y                     0.999391652      -0.019261298      -0.029074538
 ROT|      Z                     0.031281300       0.863674257       0.503078779
 ROT| Numer of Rotovibrational vectors:     6

 Calculation of degrees of freedom
                                                      Number of atoms:         3
                                 Number of Intramolecular constraints:         0
                                 Number of Intermolecular constraints:         0
                                  Invariants(translation + rotations):         6
                                                   Degrees of freedom:         3


 Restraints Information
                                  Number of Intramolecular restraints:         0
                                  Number of Intermolecular restraints:         0

 THERMOSTAT| Thermostat Info for PARTICLES
 THERMOSTAT| Type of thermostat            Canonical Sampling/Velocity Rescaling
 THERMOSTAT| CSVR time constant [  fs]                                     50.00
 THERMOSTAT| Initial Kinetic Energy                                     0.000000
 THERMOSTAT| End of Thermostat Info for PARTICLES

 ************************** Velocities initialization **************************
 Initial Temperature                                                    100.00 K
 COM velocity:           -0.000000000000     -0.000000000000      0.000000000000
 COM position:           13.951164069686     14.154522030052     14.556769196059
 Angular velocity:       -0.000000000000      0.000000000000      0.000000000000
 *******************************************************************************


 Number of electrons:                                                          8
 Number of occupied orbitals:                                                  4
 Number of molecular orbitals:                                                 4

 Number of orbital functions:                                                 23
 Number of independent orbital functions:                                     23

 Extrapolation method: initial_guess


 SCF WAVEFUNCTION OPTIMIZATION

  ----------------------------------- OT ---------------------------------------
  Minimizer      : DIIS                : direct inversion
                                         in the iterative subspace
                                         using   7 DIIS vectors
                                         safer DIIS on
  Preconditioner : FULL_ALL            : diagonalization, state selective
  Precond_solver : DEFAULT
  stepsize       :    0.15000000                  energy_gap     :    0.08000000
  eps_taylor     :   0.10000E-15                  max_taylor     :             4
  ----------------------------------- OT ---------------------------------------

  Step     Update method      Time    Convergence         Total energy    Change
  ------------------------------------------------------------------------------
     1 OT DIIS     0.15E+00    7.2     0.23299381       -16.8943468602 -1.69E+01
     2 OT DIIS     0.15E+00    5.8     0.16004571       -17.1079059891 -2.14E-01
     3 OT DIIS     0.15E+00    5.8     0.03166420       -17.2107257460 -1.03E-01
     4 OT DIIS     0.15E+00    5.8     0.00822989       -17.2184549060 -7.73E-03
     5 OT DIIS     0.15E+00    6.2     0.00156240       -17.2192418285 -7.87E-04
     6 OT DIIS     0.15E+00    6.2     0.00041081       -17.2192654969 -2.37E-05
     7 OT DIIS     0.15E+00    6.3     0.00006587       -17.2192674939 -2.00E-06
     8 OT DIIS     0.15E+00    6.2     0.00001523       -17.2192675395 -4.57E-08
     9 OT DIIS     0.15E+00    6.7     0.00000313       -17.2192675423 -2.74E-09
    10 OT DIIS     0.15E+00    6.7     0.00000075       -17.2192675424 -1.15E-10

  *** SCF run converged in    10 steps ***


  Electronic density on regular grids:         -8.0000000193       -0.0000000193
  Core density on regular grids:                7.9999999997       -0.0000000003
  Total charge density on r-space grids:       -0.0000000195
  Total charge density g-space grids:          -0.0000000196

  Overlap energy of the core charge distribution:               0.00000006293707
  Self energy of the core charge distribution:                -44.34715499673765
  Core Hamiltonian energy:                                     12.91238702080867
  Hartree energy:                                              18.44519938864851
  Exchange-correlation energy:                                 -4.22969483712925
  Dispersion energy:                                           -0.00000418091608

  Total energy:                                               -17.21926754238873

  outer SCF iter =    1 RMS gradient =   0.75E-06 energy =        -17.2192675424
  outer SCF loop converged in   1 iterations or   10 steps


 MOMENTS
  The electric/magnetic moments are written to file:
  water_dimer_dipole.out


 ENERGY| Total FORCE_EVAL ( QS ) energy (a.u.):              -17.219267542392444


 MD_ENERGIES| Initialization proceeding


 ******************************** GO CP2K GO! **********************************
 INITIAL POTENTIAL ENERGY[hartree]     =                     -0.172192675424E+02
 INITIAL KINETIC ENERGY[hartree]       =                      0.475022301493E-03
 INITIAL TEMPERATURE[K]                =                                 100.000
 INITIAL VOLUME[bohr^3]                =                      0.227756292179E+05
 INITIAL CELL LNTHS[bohr]   =      0.2834589E+02   0.2834589E+02   0.2834589E+02
 INITIAL CELL ANGLS[deg]    =      0.9000000E+02   0.9000000E+02   0.9000000E+02
 ******************************** GO CP2K GO! **********************************

 Number of electrons:                                                          8
 Number of occupied orbitals:                                                  4
 Number of molecular orbitals:                                                 4

 Number of orbital functions:                                                 23
 Number of independent orbital functions:                                     23

 Extrapolation method: ASPC


 SCF WAVEFUNCTION OPTIMIZATION

  ----------------------------------- OT ---------------------------------------
  Minimizer      : DIIS                : direct inversion
                                         in the iterative subspace
                                         using   7 DIIS vectors
                                         safer DIIS on
  Preconditioner : FULL_ALL            : diagonalization, state selective
  Precond_solver : DEFAULT
  stepsize       :    0.15000000                  energy_gap     :    0.08000000
  eps_taylor     :   0.10000E-15                  max_taylor     :             4
  ----------------------------------- OT ---------------------------------------

  Step     Update method      Time    Convergence         Total energy    Change
  ------------------------------------------------------------------------------
     1 OT DIIS     0.15E+00    6.0     0.00101396       -17.2193769324 -1.72E+01
     2 OT DIIS     0.15E+00    6.8     0.00046154       -17.2193856825 -8.75E-06
     3 OT DIIS     0.15E+00    6.8     0.00026329       -17.2193871234 -1.44E-06
     4 OT DIIS     0.15E+00    6.9     0.00000874       -17.2193875405 -4.17E-07
     5 OT DIIS     0.15E+00    6.7     0.00000262       -17.2193875413 -7.34E-10
     6 OT DIIS     0.15E+00    6.9     0.00000013       -17.2193875414 -7.22E-11

  *** SCF run converged in     6 steps ***


  Electronic density on regular grids:         -8.0000000157       -0.0000000157
  Core density on regular grids:                7.9999999997       -0.0000000003
  Total charge density on r-space grids:       -0.0000000160
  Total charge density g-space grids:          -0.0000000160

  Overlap energy of the core charge distribution:               0.00000005877388
  Self energy of the core charge distribution:                -44.34715499673765
  Core Hamiltonian energy:                                     12.90568452146433
  Hartree energy:                                              18.45002816466035
  Exchange-correlation energy:                                 -4.22794116490995
  Dispersion energy:                                           -0.00000412460706

  Total energy:                                               -17.21938754135609

  outer SCF iter =    1 RMS gradient =   0.13E-06 energy =        -17.2193875414
  outer SCF loop converged in   1 iterations or    6 steps


 MOMENTS
  The electric/magnetic moments are written to file:
  water_dimer_dipole.out


 ENERGY| Total FORCE_EVAL ( QS ) energy (a.u.):              -17.219387541356518


 Temperature scaled to requested temperature:    117.48 K  ->    117.49 K
 MD| Old VCOM =    -0.0000015137   -0.0000000502    0.0000006940 a.u.
 MD| New VCOM =     0.0000000000    0.0000000000    0.0000000000 a.u
 MD| Old VANG =    -0.0000001254   -0.0000011827    0.0000001073 a.u.
 MD| New VANG =     0.0000000000    0.0000000000   -0.0000000000 a.u

 *******************************************************************************
 ENSEMBLE TYPE                =                                              NVT
 STEP NUMBER                  =                                                1
 TIME [fs]                    =                                         0.500000
 CONSERVED QUANTITY [hartree] =                              -0.172187942340E+02

                                              INSTANTANEOUS             AVERAGES
 CPU TIME [s]                 =                      119.04               119.04
 ENERGY DRIFT PER ATOM [K]    =         -0.180398625864E+00   0.000000000000E+00
 POTENTIAL ENERGY[hartree]    =         -0.172193875414E+02  -0.172193875414E+02
 KINETIC ENERGY [hartree]     =          0.558096962174E-03   0.558096962174E-03
 TEMPERATURE [K]              =                     117.489              117.489
 *******************************************************************************


 Number of electrons:                                                          8
 Number of occupied orbitals:                                                  4
 Number of molecular orbitals:                                                 4

 Number of orbital functions:                                                 23
 Number of independent orbital functions:                                     23

 Extrapolation method: ASPC


 SCF WAVEFUNCTION OPTIMIZATION

  ----------------------------------- OT ---------------------------------------
  Minimizer      : DIIS                : direct inversion
                                         in the iterative subspace
                                         using   7 DIIS vectors
                                         safer DIIS on
  Preconditioner : FULL_ALL            : diagonalization, state selective
  Precond_solver : DEFAULT
  stepsize       :    0.15000000                  energy_gap     :    0.08000000
  eps_taylor     :   0.10000E-15                  max_taylor     :             4
  ----------------------------------- OT ---------------------------------------

  Step     Update method      Time    Convergence         Total energy    Change
  ------------------------------------------------------------------------------
     1 OT DIIS     0.15E+00    6.0     0.00024258       -17.2194856340 -1.72E+01
     2 OT DIIS     0.15E+00    6.9     0.00012530       -17.2194860395 -4.06E-07
     3 OT DIIS     0.15E+00    6.7     0.00005397       -17.2194861181 -7.86E-08
     4 OT DIIS     0.15E+00    6.8     0.00000372       -17.2194861398 -2.17E-08
     5 OT DIIS     0.15E+00    6.7     0.00000071       -17.2194861400 -1.43E-10

  *** SCF run converged in     5 steps ***


  Electronic density on regular grids:         -8.0000000120       -0.0000000120
  Core density on regular grids:                7.9999999997       -0.0000000003
  Total charge density on r-space grids:       -0.0000000122
  Total charge density g-space grids:          -0.0000000122

  Overlap energy of the core charge distribution:               0.00000005341810
  Self energy of the core charge distribution:                -44.34715499673765
  Core Hamiltonian energy:                                     12.89632986525995
  Hartree energy:                                              18.45677402277979
  Exchange-correlation energy:                                 -4.22543098936271
  Dispersion energy:                                           -0.00000409531932

  Total energy:                                               -17.21948613996184

  outer SCF iter =    1 RMS gradient =   0.71E-06 energy =        -17.2194861400
  outer SCF loop converged in   1 iterations or    5 steps


 MOMENTS
  The electric/magnetic moments are written to file:
  water_dimer_dipole.out


 ENERGY| Total FORCE_EVAL ( QS ) energy (a.u.):              -17.219486139969010


 Temperature scaled to requested temperature:    121.78 K  ->    121.79 K
 MD| Old VCOM =    -0.0000015912   -0.0000000227    0.0000006984 a.u.
 MD| New VCOM =     0.0000000000    0.0000000000   -0.0000000000 a.u
 MD| Old VANG =    -0.0000001200   -0.0000012139    0.0000000948 a.u.
 MD| New VANG =     0.0000000000    0.0000000000    0.0000000000 a.u

 *******************************************************************************
 ENSEMBLE TYPE                =                                              NVT
 STEP NUMBER                  =                                                2
 TIME [fs]                    =                                         1.000000
 CONSERVED QUANTITY [hartree] =                              -0.172187956991E+02

                                              INSTANTANEOUS             AVERAGES
 CPU TIME [s]                 =                       41.03                80.04
 ENERGY DRIFT PER ATOM [K]    =         -0.334619742347E+00  -0.167309871173E+00
 POTENTIAL ENERGY[hartree]    =         -0.172194861400E+02  -0.172194368407E+02
 KINETIC ENERGY [hartree]     =          0.578529758766E-03   0.568313360470E-03
 TEMPERATURE [K]              =                     121.790              119.639
 *******************************************************************************


 Number of electrons:                                                          8
 Number of occupied orbitals:                                                  4
 Number of molecular orbitals:                                                 4

 Number of orbital functions:                                                 23
 Number of independent orbital functions:                                     23

 Extrapolation method: ASPC


 SCF WAVEFUNCTION OPTIMIZATION

  ----------------------------------- OT ---------------------------------------
  Minimizer      : DIIS                : direct inversion
                                         in the iterative subspace
                                         using   7 DIIS vectors
                                         safer DIIS on
  Preconditioner : FULL_ALL            : diagonalization, state selective
  Precond_solver : DEFAULT
  stepsize       :    0.15000000                  energy_gap     :    0.08000000
  eps_taylor     :   0.10000E-15                  max_taylor     :             4
  ----------------------------------- OT ---------------------------------------

  Step     Update method      Time    Convergence         Total energy    Change
  ------------------------------------------------------------------------------
     1 OT DIIS     0.15E+00    5.9     0.00010502       -17.2195509433 -1.72E+01
     2 OT DIIS     0.15E+00    6.7     0.00004959       -17.2195510308 -8.75E-08
     3 OT DIIS     0.15E+00    6.7     0.00002644       -17.2195510452 -1.44E-08
     4 OT DIIS     0.15E+00    6.6     0.00000142       -17.2195510498 -4.55E-09
     5 OT DIIS     0.15E+00    6.7     0.00000035       -17.2195510498 -2.17E-11

  *** SCF run converged in     5 steps ***


  Electronic density on regular grids:         -8.0000000079       -0.0000000079
  Core density on regular grids:                7.9999999997       -0.0000000003
  Total charge density on r-space grids:       -0.0000000082
  Total charge density g-space grids:          -0.0000000082

  Overlap energy of the core charge distribution:               0.00000004733880
  Self energy of the core charge distribution:                -44.34715499673765
  Core Hamiltonian energy:                                     12.88482903201466
  Hartree energy:                                              18.46508815784440
  Exchange-correlation energy:                                 -4.22230920884104
  Dispersion energy:                                           -0.00000408142472

  Total energy:                                               -17.21955104980555

  outer SCF iter =    1 RMS gradient =   0.35E-06 energy =        -17.2195510498
  outer SCF loop converged in   1 iterations or    5 steps


 MOMENTS
  The electric/magnetic moments are written to file:
  water_dimer_dipole.out


 ENERGY| Total FORCE_EVAL ( QS ) energy (a.u.):              -17.219551049808345


 Temperature scaled to requested temperature:    137.37 K  ->    137.38 K
 MD| Old VCOM =    -0.0000016911    0.0000000074    0.0000007083 a.u.
 MD| New VCOM =    -0.0000000000    0.0000000000    0.0000000000 a.u
 MD| Old VANG =    -0.0000001081   -0.0000012584    0.0000000783 a.u.
 MD| New VANG =     0.0000000000    0.0000000000   -0.0000000000 a.u

 *******************************************************************************
 ENSEMBLE TYPE                =                                              NVT
 STEP NUMBER                  =                                                3
 TIME [fs]                    =                                         1.500000
 CONSERVED QUANTITY [hartree] =                              -0.172187965776E+02

                                              INSTANTANEOUS             AVERAGES
 CPU TIME [s]                 =                       40.52                66.87
 ENERGY DRIFT PER ATOM [K]    =         -0.427085488012E+00  -0.253901743453E+00
 POTENTIAL ENERGY[hartree]    =         -0.172195510498E+02  -0.172194749104E+02
 KINETIC ENERGY [hartree]     =          0.652599630213E-03   0.596408783718E-03
 TEMPERATURE [K]              =                     137.383              125.554
 *******************************************************************************


 Number of electrons:                                                          8
 Number of occupied orbitals:                                                  4
 Number of molecular orbitals:                                                 4

 Number of orbital functions:                                                 23
 Number of independent orbital functions:                                     23

 Extrapolation method: ASPC


 SCF WAVEFUNCTION OPTIMIZATION

  ----------------------------------- OT ---------------------------------------
  Minimizer      : DIIS                : direct inversion
                                         in the iterative subspace
                                         using   7 DIIS vectors
                                         safer DIIS on
  Preconditioner : FULL_ALL            : diagonalization, state selective
  Precond_solver : DEFAULT
  stepsize       :    0.15000000                  energy_gap     :    0.08000000
  eps_taylor     :   0.10000E-15                  max_taylor     :             4
  ----------------------------------- OT ---------------------------------------

  Step     Update method      Time    Convergence         Total energy    Change
  ------------------------------------------------------------------------------
     1 OT DIIS     0.15E+00    5.9     0.00013375       -17.2195693510 -1.72E+01
     2 OT DIIS     0.15E+00    6.7     0.00006343       -17.2195694954 -1.44E-07
     3 OT DIIS     0.15E+00    6.6     0.00003457       -17.2195695196 -2.42E-08
     4 OT DIIS     0.15E+00    6.7     0.00000153       -17.2195695273 -7.67E-09
     5 OT DIIS     0.15E+00    6.7     0.00000043       -17.2195695273 -2.42E-11

  *** SCF run converged in     5 steps ***


  Electronic density on regular grids:         -8.0000000041       -0.0000000041
  Core density on regular grids:                7.9999999997       -0.0000000003
  Total charge density on r-space grids:       -0.0000000044
  Total charge density g-space grids:          -0.0000000044

  Overlap energy of the core charge distribution:               0.00000004167152
  Self energy of the core charge distribution:                -44.34715499673765
  Core Hamiltonian energy:                                     12.87319526463779
  Hartree energy:                                              18.47352633342980
  Exchange-correlation energy:                                 -4.21913209736313
  Dispersion energy:                                           -0.00000407291831

  Total energy:                                               -17.21956952727999

  outer SCF iter =    1 RMS gradient =   0.43E-06 energy =        -17.2195695273
  outer SCF loop converged in   1 iterations or    5 steps


 MOMENTS
  The electric/magnetic moments are written to file:
  water_dimer_dipole.out


 ENERGY| Total FORCE_EVAL ( QS ) energy (a.u.):              -17.219569527281088


 Temperature scaled to requested temperature:    129.31 K  ->    129.33 K
 MD| Old VCOM =    -0.0000018103    0.0000000399    0.0000007216 a.u.
 MD| New VCOM =    -0.0000000000   -0.0000000000   -0.0000000000 a.u
 MD| Old VANG =    -0.0000000894   -0.0000013203    0.0000000576 a.u.
 MD| New VANG =    -0.0000000000    0.0000000000    0.0000000000 a.u

 *******************************************************************************
 ENSEMBLE TYPE                =                                              NVT
 STEP NUMBER                  =                                                4
 TIME [fs]                    =                                         2.000000
 CONSERVED QUANTITY [hartree] =                              -0.172187966361E+02

                                              INSTANTANEOUS             AVERAGES
 CPU TIME [s]                 =                       40.55                60.29
 ENERGY DRIFT PER ATOM [K]    =         -0.433242642608E+00  -0.298736968242E+00
 POTENTIAL ENERGY[hartree]    =         -0.172195695273E+02  -0.172194985646E+02
 KINETIC ENERGY [hartree]     =          0.614328459711E-03   0.600888702716E-03
 TEMPERATURE [K]              =                     129.326              126.497
 *******************************************************************************


 Number of electrons:                                                          8
 Number of occupied orbitals:                                                  4
 Number of molecular orbitals:                                                 4

 Number of orbital functions:                                                 23
 Number of independent orbital functions:                                     23

 Extrapolation method: ASPC


 SCF WAVEFUNCTION OPTIMIZATION

  ----------------------------------- OT ---------------------------------------
  Minimizer      : DIIS                : direct inversion
                                         in the iterative subspace
                                         using   7 DIIS vectors
                                         safer DIIS on
  Preconditioner : FULL_ALL            : diagonalization, state selective
  Precond_solver : DEFAULT
  stepsize       :    0.15000000                  energy_gap     :    0.08000000
  eps_taylor     :   0.10000E-15                  max_taylor     :             4
  ----------------------------------- OT ---------------------------------------

  Step     Update method      Time    Convergence         Total energy    Change
  ------------------------------------------------------------------------------
     1 OT DIIS     0.15E+00    5.9     0.00005341       -17.2195472711 -1.72E+01
     2 OT DIIS     0.15E+00    6.8     0.00002095       -17.2195472978 -2.67E-08
     3 OT DIIS     0.15E+00    6.7     0.00000859       -17.2195473023 -4.46E-09
     4 OT DIIS     0.15E+00    6.8     0.00000088       -17.2195473026 -3.30E-10

  *** SCF run converged in     4 steps ***


  Electronic density on regular grids:         -8.0000000005       -0.0000000005
  Core density on regular grids:                7.9999999997       -0.0000000003
  Total charge density on r-space grids:       -0.0000000007
  Total charge density g-space grids:          -0.0000000008

  Overlap energy of the core charge distribution:               0.00000003667406
  Self energy of the core charge distribution:                -44.34715499673765
  Core Hamiltonian energy:                                     12.86207536521935
  Hartree energy:                                              18.48162459050045
  Exchange-correlation energy:                                 -4.21608823966276
  Dispersion energy:                                           -0.00000405858006

  Total energy:                                               -17.21954730258661

  outer SCF iter =    1 RMS gradient =   0.88E-06 energy =        -17.2195473026
  outer SCF loop converged in   1 iterations or    4 steps


 MOMENTS
  The electric/magnetic moments are written to file:
  water_dimer_dipole.out


 ENERGY| Total FORCE_EVAL ( QS ) energy (a.u.):              -17.219547302592382


 Temperature scaled to requested temperature:    120.83 K  ->    120.85 K
 MD| Old VCOM =    -0.0000018872    0.0000000722    0.0000007169 a.u.
 MD| New VCOM =    -0.0000000000   -0.0000000000    0.0000000000 a.u
 MD| Old VANG =    -0.0000000641   -0.0000013582    0.0000000333 a.u.
 MD| New VANG =    -0.0000000000    0.0000000000    0.0000000000 a.u

 *******************************************************************************
 ENSEMBLE TYPE                =                                              NVT
 STEP NUMBER                  =                                                5
 TIME [fs]                    =                                         2.500000
 CONSERVED QUANTITY [hartree] =                              -0.172187959977E+02

                                              INSTANTANEOUS             AVERAGES
 CPU TIME [s]                 =                       34.33                55.10
 ENERGY DRIFT PER ATOM [K]    =         -0.366047705489E+00  -0.312199115691E+00
 POTENTIAL ENERGY[hartree]    =         -0.172195473026E+02  -0.172195083122E+02
 KINETIC ENERGY [hartree]     =          0.574055825081E-03   0.595522127189E-03
 TEMPERATURE [K]              =                     120.848              125.367
 *******************************************************************************


 Number of electrons:                                                          8
 Number of occupied orbitals:                                                  4
 Number of molecular orbitals:                                                 4

 Number of orbital functions:                                                 23
 Number of independent orbital functions:                                     23

 Extrapolation method: ASPC


 SCF WAVEFUNCTION OPTIMIZATION

  ----------------------------------- OT ---------------------------------------
  Minimizer      : DIIS                : direct inversion
                                         in the iterative subspace
                                         using   7 DIIS vectors
                                         safer DIIS on
  Preconditioner : FULL_ALL            : diagonalization, state selective
  Precond_solver : DEFAULT
  stepsize       :    0.15000000                  energy_gap     :    0.08000000
  eps_taylor     :   0.10000E-15                  max_taylor     :             4
  ----------------------------------- OT ---------------------------------------

  Step     Update method      Time    Convergence         Total energy    Change
  ------------------------------------------------------------------------------
     1 OT DIIS     0.15E+00    5.9     0.00007127       -17.2194860490 -1.72E+01
     2 OT DIIS     0.15E+00    6.7     0.00002706       -17.2194860967 -4.77E-08
     3 OT DIIS     0.15E+00    6.6     0.00000626       -17.2194861048 -8.03E-09
     4 OT DIIS     0.15E+00    6.7     0.00000189       -17.2194861050 -1.79E-10
     5 OT DIIS     0.15E+00    6.7     0.00000027       -17.2194861050 -1.70E-11

  *** SCF run converged in     5 steps ***


  Electronic density on regular grids:         -7.9999999969        0.0000000031
  Core density on regular grids:                7.9999999997       -0.0000000003
  Total charge density on r-space grids:        0.0000000029
  Total charge density g-space grids:           0.0000000029

  Overlap energy of the core charge distribution:               0.00000003231932
  Self energy of the core charge distribution:                -44.34715499673765
  Core Hamiltonian energy:                                     12.85154200157890
  Hartree energy:                                              18.48933744036215
  Exchange-correlation energy:                                 -4.21320655578734
  Dispersion energy:                                           -0.00000402670912

  Total energy:                                               -17.21948610497374

  outer SCF iter =    1 RMS gradient =   0.27E-06 energy =        -17.2194861050
  outer SCF loop converged in   1 iterations or    5 steps


 MOMENTS
  The electric/magnetic moments are written to file:
  water_dimer_dipole.out


 ENERGY| Total FORCE_EVAL ( QS ) energy (a.u.):              -17.219486104974322


 Temperature scaled to requested temperature:    130.46 K  ->    130.48 K
 MD| Old VCOM =    -0.0000019549    0.0000001055    0.0000007082 a.u.
 MD| New VCOM =    -0.0000000000    0.0000000000    0.0000000000 a.u
 MD| Old VANG =    -0.0000000376   -0.0000013990    0.0000000073 a.u.
 MD| New VANG =    -0.0000000000   -0.0000000000   -0.0000000000 a.u

 *******************************************************************************
 ENSEMBLE TYPE                =                                              NVT
 STEP NUMBER                  =                                                6
 TIME [fs]                    =                                         3.000000
 CONSERVED QUANTITY [hartree] =                              -0.172187947535E+02

                                              INSTANTANEOUS             AVERAGES
 CPU TIME [s]                 =                       40.38                52.64
 ENERGY DRIFT PER ATOM [K]    =         -0.235085059986E+00  -0.299346773074E+00
 POTENTIAL ENERGY[hartree]    =         -0.172194861050E+02  -0.172195046110E+02
 KINETIC ENERGY [hartree]     =          0.619785867524E-03   0.599566083911E-03
 TEMPERATURE [K]              =                     130.475              126.219
 *******************************************************************************


 Number of electrons:                                                          8
 Number of occupied orbitals:                                                  4
 Number of molecular orbitals:                                                 4

 Number of orbital functions:                                                 23
 Number of independent orbital functions:                                     23

 Extrapolation method: ASPC


 SCF WAVEFUNCTION OPTIMIZATION

  ----------------------------------- OT ---------------------------------------
  Minimizer      : DIIS                : direct inversion
                                         in the iterative subspace
                                         using   7 DIIS vectors
                                         safer DIIS on
  Preconditioner : FULL_ALL            : diagonalization, state selective
  Precond_solver : DEFAULT
  stepsize       :    0.15000000                  energy_gap     :    0.08000000
  eps_taylor     :   0.10000E-15                  max_taylor     :             4
  ----------------------------------- OT ---------------------------------------

  Step     Update method      Time    Convergence         Total energy    Change
  ------------------------------------------------------------------------------
     1 OT DIIS     0.15E+00    5.9     0.00022704       -17.2194043323 -1.72E+01
     2 OT DIIS     0.15E+00    6.6     0.00012469       -17.2194046846 -3.52E-07
     3 OT DIIS     0.15E+00    6.7     0.00005301       -17.2194047612 -7.66E-08
     4 OT DIIS     0.15E+00    6.7     0.00000212       -17.2194047832 -2.20E-08
     5 OT DIIS     0.15E+00    6.7     0.00000047       -17.2194047832 -4.54E-11

  *** SCF run converged in     5 steps ***


  Electronic density on regular grids:         -7.9999999938        0.0000000062
  Core density on regular grids:                7.9999999998       -0.0000000002
  Total charge density on r-space grids:        0.0000000060
  Total charge density g-space grids:           0.0000000059

  Overlap energy of the core charge distribution:               0.00000002934262
  Self energy of the core charge distribution:                -44.34715499673765
  Core Hamiltonian energy:                                     12.84371248529698
  Hartree energy:                                              18.49512125490928
  Exchange-correlation energy:                                 -4.21107958398656
  Dispersion energy:                                           -0.00000397205774

  Total energy:                                               -17.21940478323308

  outer SCF iter =    1 RMS gradient =   0.47E-06 energy =        -17.2194047832
  outer SCF loop converged in   1 iterations or    5 steps


 MOMENTS
  The electric/magnetic moments are written to file:
  water_dimer_dipole.out


 ENERGY| Total FORCE_EVAL ( QS ) energy (a.u.):              -17.219404783235642


 Temperature scaled to requested temperature:    109.69 K  ->    109.70 K
 MD| Old VCOM =    -0.0000020155    0.0000001385    0.0000006968 a.u.
 MD| New VCOM =     0.0000000000    0.0000000000    0.0000000000 a.u
 MD| Old VANG =    -0.0000000161   -0.0000014451   -0.0000000179 a.u.
 MD| New VANG =     0.0000000000   -0.0000000000   -0.0000000000 a.u

 *******************************************************************************
 ENSEMBLE TYPE                =                                              NVT
 STEP NUMBER                  =                                                7
 TIME [fs]                    =                                         3.500000
 CONSERVED QUANTITY [hartree] =                              -0.172187934139E+02

                                              INSTANTANEOUS             AVERAGES
 CPU TIME [s]                 =                       40.57                50.92
 ENERGY DRIFT PER ATOM [K]    =         -0.940837628668E-01  -0.270023485901E+00
 POTENTIAL ENERGY[hartree]    =         -0.172194047832E+02  -0.172194903499E+02
 KINETIC ENERGY [hartree]     =          0.521113915321E-03   0.588358631256E-03
 TEMPERATURE [K]              =                     109.703              123.859
 *******************************************************************************


 Number of electrons:                                                          8
 Number of occupied orbitals:                                                  4
 Number of molecular orbitals:                                                 4

 Number of orbital functions:                                                 23
 Number of independent orbital functions:                                     23

 Extrapolation method: ASPC


 SCF WAVEFUNCTION OPTIMIZATION

  ----------------------------------- OT ---------------------------------------
  Minimizer      : DIIS                : direct inversion
                                         in the iterative subspace
                                         using   7 DIIS vectors
                                         safer DIIS on
  Preconditioner : FULL_ALL            : diagonalization, state selective
  Precond_solver : DEFAULT
  stepsize       :    0.15000000                  energy_gap     :    0.08000000
  eps_taylor     :   0.10000E-15                  max_taylor     :             4
  ----------------------------------- OT ---------------------------------------

  Step     Update method      Time    Convergence         Total energy    Change
  ------------------------------------------------------------------------------
     1 OT DIIS     0.15E+00    6.0     0.00007847       -17.2193245011 -1.72E+01
     2 OT DIIS     0.15E+00    6.7     0.00004307       -17.2193245407 -3.96E-08
     3 OT DIIS     0.15E+00    6.7     0.00001700       -17.2193245494 -8.65E-09
     4 OT DIIS     0.15E+00    6.6     0.00000128       -17.2193245516 -2.21E-09
     5 OT DIIS     0.15E+00    6.7     0.00000021       -17.2193245516 -1.68E-11

  *** SCF run converged in     5 steps ***


  Electronic density on regular grids:         -7.9999999913        0.0000000087
  Core density on regular grids:                7.9999999998       -0.0000000002
  Total charge density on r-space grids:        0.0000000084
  Total charge density g-space grids:           0.0000000084

  Overlap energy of the core charge distribution:               0.00000002778149
  Self energy of the core charge distribution:                -44.34715499673765
  Core Hamiltonian energy:                                     12.83928163673338
  Hartree energy:                                              18.49846058827148
  Exchange-correlation energy:                                 -4.20990791697083
  Dispersion energy:                                           -0.00000389068691

  Total energy:                                               -17.21932455160904

  outer SCF iter =    1 RMS gradient =   0.21E-06 energy =        -17.2193245516
  outer SCF loop converged in   1 iterations or    5 steps


 MOMENTS
  The electric/magnetic moments are written to file:
  water_dimer_dipole.out


 ENERGY| Total FORCE_EVAL ( QS ) energy (a.u.):              -17.219324551608871


 Temperature scaled to requested temperature:    102.08 K  ->    102.10 K
 MD| Old VCOM =    -0.0000021875    0.0000001786    0.0000007248 a.u.
 MD| New VCOM =    -0.0000000000    0.0000000000    0.0000000000 a.u
 MD| Old VANG =    -0.0000000036   -0.0000015760   -0.0000000406 a.u.
 MD| New VANG =    -0.0000000000   -0.0000000000    0.0000000000 a.u

 *******************************************************************************
 ENSEMBLE TYPE                =                                              NVT
 STEP NUMBER                  =                                                8
 TIME [fs]                    =                                         4.000000
 CONSERVED QUANTITY [hartree] =                              -0.172187925018E+02

                                              INSTANTANEOUS             AVERAGES
 CPU TIME [s]                 =                       40.88                49.66
 ENERGY DRIFT PER ATOM [K]    =          0.192340273262E-02  -0.236030124822E+00
 POTENTIAL ENERGY[hartree]    =         -0.172193245516E+02  -0.172194696251E+02
 KINETIC ENERGY [hartree]     =          0.484995146648E-03   0.575438195680E-03
 TEMPERATURE [K]              =                     102.099              121.139
 *******************************************************************************


 Number of electrons:                                                          8
 Number of occupied orbitals:                                                  4
 Number of molecular orbitals:                                                 4

 Number of orbital functions:                                                 23
 Number of independent orbital functions:                                     23

 Extrapolation method: ASPC


 SCF WAVEFUNCTION OPTIMIZATION

  ----------------------------------- OT ---------------------------------------
  Minimizer      : DIIS                : direct inversion
                                         in the iterative subspace
                                         using   7 DIIS vectors
                                         safer DIIS on
  Preconditioner : FULL_ALL            : diagonalization, state selective
  Precond_solver : DEFAULT
  stepsize       :    0.15000000                  energy_gap     :    0.08000000
  eps_taylor     :   0.10000E-15                  max_taylor     :             4
  ----------------------------------- OT ---------------------------------------

  Step     Update method      Time    Convergence         Total energy    Change
  ------------------------------------------------------------------------------
     1 OT DIIS     0.15E+00    5.9     0.00014639       -17.2192627319 -1.72E+01
     2 OT DIIS     0.15E+00    6.6     0.00008092       -17.2192628762 -1.44E-07
     3 OT DIIS     0.15E+00    6.7     0.00003381       -17.2192629080 -3.18E-08
     4 OT DIIS     0.15E+00    6.7     0.00000150       -17.2192629169 -8.93E-09
     5 OT DIIS     0.15E+00    6.7     0.00000033       -17.2192629170 -2.43E-11

  *** SCF run converged in     5 steps ***


  Electronic density on regular grids:         -7.9999999896        0.0000000104
  Core density on regular grids:                7.9999999998       -0.0000000002
  Total charge density on r-space grids:        0.0000000102
  Total charge density g-space grids:           0.0000000102

  Overlap energy of the core charge distribution:               0.00000002763766
  Self energy of the core charge distribution:                -44.34715499673765
  Core Hamiltonian energy:                                     12.83866983965932
  Hartree energy:                                              18.49903773009300
  Exchange-correlation energy:                                 -4.20981173163740
  Dispersion energy:                                           -0.00000378597881

  Total energy:                                               -17.21926291696388

  outer SCF iter =    1 RMS gradient =   0.33E-06 energy =        -17.2192629170
  outer SCF loop converged in   1 iterations or    5 steps


 MOMENTS
  The electric/magnetic moments are written to file:
  water_dimer_dipole.out


 ENERGY| Total FORCE_EVAL ( QS ) energy (a.u.):              -17.219262916965583


 Temperature scaled to requested temperature:     83.27 K  ->     83.29 K
 MD| Old VCOM =    -0.0000022649    0.0000002096    0.0000007240 a.u.
 MD| New VCOM =     0.0000000000   -0.0000000000    0.0000000000 a.u
 MD| Old VANG =     0.0000000029   -0.0000016411   -0.0000000576 a.u.
 MD| New VANG =     0.0000000000    0.0000000000    0.0000000000 a.u

 *******************************************************************************
 ENSEMBLE TYPE                =                                              NVT
 STEP NUMBER                  =                                                9
 TIME [fs]                    =                                         4.500000
 CONSERVED QUANTITY [hartree] =                              -0.172187923469E+02

                                              INSTANTANEOUS             AVERAGES
 CPU TIME [s]                 =                       40.29                48.62
 ENERGY DRIFT PER ATOM [K]    =          0.182271413030E-01  -0.207779317475E+00
 POTENTIAL ENERGY[hartree]    =         -0.172192629170E+02  -0.172194466575E+02
 KINETIC ENERGY [hartree]     =          0.395651742484E-03   0.555461923102E-03
 TEMPERATURE [K]              =                      83.291              116.934
 *******************************************************************************


 Number of electrons:                                                          8
 Number of occupied orbitals:                                                  4
 Number of molecular orbitals:                                                 4

 Number of orbital functions:                                                 23
 Number of independent orbital functions:                                     23

 Extrapolation method: ASPC


 SCF WAVEFUNCTION OPTIMIZATION

  ----------------------------------- OT ---------------------------------------
  Minimizer      : DIIS                : direct inversion
                                         in the iterative subspace
                                         using   7 DIIS vectors
                                         safer DIIS on
  Preconditioner : FULL_ALL            : diagonalization, state selective
  Precond_solver : DEFAULT
  stepsize       :    0.15000000                  energy_gap     :    0.08000000
  eps_taylor     :   0.10000E-15                  max_taylor     :             4
  ----------------------------------- OT ---------------------------------------

  Step     Update method      Time    Convergence         Total energy    Change
  ------------------------------------------------------------------------------
     1 OT DIIS     0.15E+00    5.8     0.00010696       -17.2192151314 -1.72E+01
     2 OT DIIS     0.15E+00    6.6     0.00005691       -17.2192152075 -7.61E-08
     3 OT DIIS     0.15E+00    6.7     0.00002379       -17.2192152229 -1.54E-08
     4 OT DIIS     0.15E+00    6.7     0.00000193       -17.2192152270 -4.15E-09
     5 OT DIIS     0.15E+00    6.7     0.00000029       -17.2192152270 -4.30E-11

  *** SCF run converged in     5 steps ***


  Electronic density on regular grids:         -7.9999999883        0.0000000117
  Core density on regular grids:                7.9999999998       -0.0000000002
  Total charge density on r-space grids:        0.0000000115
  Total charge density g-space grids:           0.0000000114

  Overlap energy of the core charge distribution:               0.00000002889454
  Self energy of the core charge distribution:                -44.34715499673765
  Core Hamiltonian energy:                                     12.84184268029403
  Hartree energy:                                              18.49688972522265
  Exchange-correlation energy:                                 -4.21078901310633
  Dispersion energy:                                           -0.00000365161581

  Total energy:                                               -17.21921522704857

  outer SCF iter =    1 RMS gradient =   0.29E-06 energy =        -17.2192152270
  outer SCF loop converged in   1 iterations or    5 steps


 MOMENTS
  The electric/magnetic moments are written to file:
  water_dimer_dipole.out


 ENERGY| Total FORCE_EVAL ( QS ) energy (a.u.):              -17.219215227048323


 Temperature scaled to requested temperature:     66.36 K  ->     66.37 K
 MD| Old VCOM =    -0.0000020392    0.0000002068    0.0000006333 a.u.
 MD| New VCOM =     0.0000000000   -0.0000000000    0.0000000000 a.u
 MD| Old VANG =     0.0000000049   -0.0000014847   -0.0000000609 a.u.
 MD| New VANG =     0.0000000000    0.0000000000   -0.0000000000 a.u

 *******************************************************************************
 ENSEMBLE TYPE                =                                              NVT
 STEP NUMBER                  =                                               10
 TIME [fs]                    =                                         5.000000
 CONSERVED QUANTITY [hartree] =                              -0.172187928671E+02

                                              INSTANTANEOUS             AVERAGES
 CPU TIME [s]                 =                       40.44                47.80
 ENERGY DRIFT PER ATOM [K]    =         -0.365208098428E-01  -0.190653466712E+00
 POTENTIAL ENERGY[hartree]    =         -0.172192152270E+02  -0.172194235145E+02
 KINETIC ENERGY [hartree]     =          0.315286534031E-03   0.531444384195E-03
 TEMPERATURE [K]              =                      66.373              111.878
 *******************************************************************************


 Number of electrons:                                                          8
 Number of occupied orbitals:                                                  4
 Number of molecular orbitals:                                                 4

 Number of orbital functions:                                                 23
 Number of independent orbital functions:                                     23

 Extrapolation method: ASPC


 SCF WAVEFUNCTION OPTIMIZATION

  ----------------------------------- OT ---------------------------------------
  Minimizer      : DIIS                : direct inversion
                                         in the iterative subspace
                                         using   7 DIIS vectors
                                         safer DIIS on
  Preconditioner : FULL_ALL            : diagonalization, state selective
  Precond_solver : DEFAULT
  stepsize       :    0.15000000                  energy_gap     :    0.08000000
  eps_taylor     :   0.10000E-15                  max_taylor     :             4
  ----------------------------------- OT ---------------------------------------

  Step     Update method      Time    Convergence         Total energy    Change
  ------------------------------------------------------------------------------
     1 OT DIIS     0.15E+00    5.8     0.00016159       -17.2191806171 -1.72E+01
     2 OT DIIS     0.15E+00    6.6     0.00006733       -17.2191808549 -2.38E-07
     3 OT DIIS     0.15E+00    6.7     0.00003907       -17.2191808929 -3.80E-08
     4 OT DIIS     0.15E+00    6.7     0.00000184       -17.2191809003 -7.39E-09
     5 OT DIIS     0.15E+00    6.7     0.00000049       -17.2191809003 -3.07E-11

  *** SCF run converged in     5 steps ***


  Electronic density on regular grids:         -7.9999999877        0.0000000123
  Core density on regular grids:                7.9999999998       -0.0000000002
  Total charge density on r-space grids:        0.0000000121
  Total charge density g-space grids:           0.0000000121

  Overlap energy of the core charge distribution:               0.00000003131313
  Self energy of the core charge distribution:                -44.34715499673765
  Core Hamiltonian energy:                                     12.84792287850461
  Hartree energy:                                              18.49263245592770
  Exchange-correlation energy:                                 -4.21257775452944
  Dispersion energy:                                           -0.00000351479539

  Total energy:                                               -17.21918090031705

  outer SCF iter =    1 RMS gradient =   0.49E-06 energy =        -17.2191809003
  outer SCF loop converged in   1 iterations or    5 steps


 MOMENTS
  The electric/magnetic moments are written to file:
  water_dimer_dipole.out


 ENERGY| Total FORCE_EVAL ( QS ) energy (a.u.):              -17.219180900320953


 Temperature scaled to requested temperature:     59.95 K  ->     59.97 K
 MD| Old VCOM =    -0.0000022333    0.0000002411    0.0000006797 a.u.
 MD| New VCOM =     0.0000000000    0.0000000000    0.0000000000 a.u
 MD| Old VANG =     0.0000000069   -0.0000016336   -0.0000000726 a.u.
 MD| New VANG =     0.0000000000    0.0000000000    0.0000000000 a.u

 *******************************************************************************
 ENSEMBLE TYPE                =                                              NVT
 STEP NUMBER                  =                                               11
 TIME [fs]                    =                                         5.500000
 CONSERVED QUANTITY [hartree] =                              -0.172187936193E+02

                                              INSTANTANEOUS             AVERAGES
 CPU TIME [s]                 =                       40.40                47.13
 ENERGY DRIFT PER ATOM [K]    =         -0.115700217509E+00  -0.183839534966E+00
 POTENTIAL ENERGY[hartree]    =         -0.172191809003E+02  -0.172194014587E+02
 KINETIC ENERGY [hartree]     =          0.284854901646E-03   0.509027158509E-03
 TEMPERATURE [K]              =                      59.967              107.159
 *******************************************************************************


 Number of electrons:                                                          8
 Number of occupied orbitals:                                                  4
 Number of molecular orbitals:                                                 4

 Number of orbital functions:                                                 23
 Number of independent orbital functions:                                     23

 Extrapolation method: ASPC


 SCF WAVEFUNCTION OPTIMIZATION

  ----------------------------------- OT ---------------------------------------
  Minimizer      : DIIS                : direct inversion
                                         in the iterative subspace
                                         using   7 DIIS vectors
                                         safer DIIS on
  Preconditioner : FULL_ALL            : diagonalization, state selective
  Precond_solver : DEFAULT
  stepsize       :    0.15000000                  energy_gap     :    0.08000000
  eps_taylor     :   0.10000E-15                  max_taylor     :             4
  ----------------------------------- OT ---------------------------------------

  Step     Update method      Time    Convergence         Total energy    Change
  ------------------------------------------------------------------------------
     1 OT DIIS     0.15E+00    5.8     0.00005882       -17.2191502724 -1.72E+01
     2 OT DIIS     0.15E+00    6.7     0.00003116       -17.2191502957 -2.33E-08
     3 OT DIIS     0.15E+00    6.5     0.00001322       -17.2191503004 -4.69E-09
     4 OT DIIS     0.15E+00    6.6     0.00000098       -17.2191503017 -1.29E-09

  *** SCF run converged in     4 steps ***


  Electronic density on regular grids:         -7.9999999875        0.0000000125
  Core density on regular grids:                7.9999999998       -0.0000000002
  Total charge density on r-space grids:        0.0000000123
  Total charge density g-space grids:           0.0000000123

  Overlap energy of the core charge distribution:               0.00000003477055
  Self energy of the core charge distribution:                -44.34715499673765
  Core Hamiltonian energy:                                     12.85624553053864
  Hartree energy:                                              18.48675164293849
  Exchange-correlation energy:                                 -4.21498913291801
  Dispersion energy:                                           -0.00000338027360

  Total energy:                                               -17.21915030168159

  outer SCF iter =    1 RMS gradient =   0.98E-06 energy =        -17.2191503017
  outer SCF loop converged in   1 iterations or    4 steps


 MOMENTS
  The electric/magnetic moments are written to file:
  water_dimer_dipole.out


 ENERGY| Total FORCE_EVAL ( QS ) energy (a.u.):              -17.219150301691446


 Temperature scaled to requested temperature:     56.71 K  ->     56.74 K
 MD| Old VCOM =    -0.0000024033    0.0000002678    0.0000007244 a.u.
 MD| New VCOM =     0.0000000000    0.0000000000   -0.0000000000 a.u
 MD| Old VANG =     0.0000000090   -0.0000017635   -0.0000000809 a.u.
 MD| New VANG =    -0.0000000000   -0.0000000000   -0.0000000000 a.u

 *******************************************************************************
 ENSEMBLE TYPE                =                                              NVT
 STEP NUMBER                  =                                               12
 TIME [fs]                    =                                         6.000000
 CONSERVED QUANTITY [hartree] =                              -0.172187942081E+02

                                              INSTANTANEOUS             AVERAGES
 CPU TIME [s]                 =                       33.88                46.02
 ENERGY DRIFT PER ATOM [K]    =         -0.177671903654E+00  -0.183325565690E+00
 POTENTIAL ENERGY[hartree]    =         -0.172191503017E+02  -0.172193805289E+02
 KINETIC ENERGY [hartree]     =          0.269509477311E-03   0.489067351743E-03
 TEMPERATURE [K]              =                      56.736              102.957
 *******************************************************************************


 Number of electrons:                                                          8
 Number of occupied orbitals:                                                  4
 Number of molecular orbitals:                                                 4

 Number of orbital functions:                                                 23
 Number of independent orbital functions:                                     23

 Extrapolation method: ASPC


 SCF WAVEFUNCTION OPTIMIZATION

  ----------------------------------- OT ---------------------------------------
  Minimizer      : DIIS                : direct inversion
                                         in the iterative subspace
                                         using   7 DIIS vectors
                                         safer DIIS on
  Preconditioner : FULL_ALL            : diagonalization, state selective
  Precond_solver : DEFAULT
  stepsize       :    0.15000000                  energy_gap     :    0.08000000
  eps_taylor     :   0.10000E-15                  max_taylor     :             4
  ----------------------------------- OT ---------------------------------------

  Step     Update method      Time    Convergence         Total energy    Change
  ------------------------------------------------------------------------------
     1 OT DIIS     0.15E+00    5.7     0.00009865       -17.2191079675 -1.72E+01
     2 OT DIIS     0.15E+00    6.7     0.00005102       -17.2191080374 -6.98E-08
     3 OT DIIS     0.15E+00    6.6     0.00002354       -17.2191080507 -1.33E-08
     4 OT DIIS     0.15E+00    6.5     0.00000132       -17.2191080547 -4.01E-09
     5 OT DIIS     0.15E+00    6.7     0.00000029       -17.2191080547 -1.81E-11

  *** SCF run converged in     5 steps ***


  Electronic density on regular grids:         -7.9999999876        0.0000000124
  Core density on regular grids:                7.9999999998       -0.0000000002
  Total charge density on r-space grids:        0.0000000122
  Total charge density g-space grids:           0.0000000122

  Overlap energy of the core charge distribution:               0.00000003948029
  Self energy of the core charge distribution:                -44.34715499673765
  Core Hamiltonian energy:                                     12.86684636882718
  Hartree energy:                                              18.47923893236656
  Exchange-correlation energy:                                 -4.21803515560477
  Dispersion energy:                                           -0.00000324306272

  Total energy:                                               -17.21910805473112

  outer SCF iter =    1 RMS gradient =   0.29E-06 energy =        -17.2191080547
  outer SCF loop converged in   1 iterations or    5 steps


 MOMENTS
  The electric/magnetic moments are written to file:
  water_dimer_dipole.out


 ENERGY| Total FORCE_EVAL ( QS ) energy (a.u.):              -17.219108054732377


 Temperature scaled to requested temperature:     49.68 K  ->     49.70 K
 MD| Old VCOM =    -0.0000022426    0.0000002512    0.0000006756 a.u.
 MD| New VCOM =     0.0000000000   -0.0000000000    0.0000000000 a.u
 MD| Old VANG =     0.0000000098   -0.0000016488   -0.0000000761 a.u.
 MD| New VANG =    -0.0000000000    0.0000000000    0.0000000000 a.u

 *******************************************************************************
 ENSEMBLE TYPE                =                                              NVT
 STEP NUMBER                  =                                               13
 TIME [fs]                    =                                         6.500000
 CONSERVED QUANTITY [hartree] =                              -0.172187942232E+02

                                              INSTANTANEOUS             AVERAGES
 CPU TIME [s]                 =                       40.25                45.58
 ENERGY DRIFT PER ATOM [K]    =         -0.179261446631E+00  -0.183012941147E+00
 POTENTIAL ENERGY[hartree]    =         -0.172191080547E+02  -0.172193595694E+02
 KINETIC ENERGY [hartree]     =          0.236074218995E-03   0.469606341531E-03
 TEMPERATURE [K]              =                      49.698               98.860
 *******************************************************************************


 Number of electrons:                                                          8
 Number of occupied orbitals:                                                  4
 Number of molecular orbitals:                                                 4

 Number of orbital functions:                                                 23
 Number of independent orbital functions:                                     23

 Extrapolation method: ASPC


 SCF WAVEFUNCTION OPTIMIZATION

  ----------------------------------- OT ---------------------------------------
  Minimizer      : DIIS                : direct inversion
                                         in the iterative subspace
                                         using   7 DIIS vectors
                                         safer DIIS on
  Preconditioner : FULL_ALL            : diagonalization, state selective
  Precond_solver : DEFAULT
  stepsize       :    0.15000000                  energy_gap     :    0.08000000
  eps_taylor     :   0.10000E-15                  max_taylor     :             4
  ----------------------------------- OT ---------------------------------------

  Step     Update method      Time    Convergence         Total energy    Change
  ------------------------------------------------------------------------------
     1 OT DIIS     0.15E+00    5.8     0.00016866       -17.2190563136 -1.72E+01
     2 OT DIIS     0.15E+00    6.7     0.00008140       -17.2190565240 -2.10E-07
     3 OT DIIS     0.15E+00    6.6     0.00004026       -17.2190565589 -3.49E-08
     4 OT DIIS     0.15E+00    6.7     0.00000323       -17.2190565697 -1.08E-08
     5 OT DIIS     0.15E+00    6.6     0.00000048       -17.2190565698 -1.05E-10

  *** SCF run converged in     5 steps ***


  Electronic density on regular grids:         -7.9999999880        0.0000000120
  Core density on regular grids:                7.9999999998       -0.0000000002
  Total charge density on r-space grids:        0.0000000118
  Total charge density g-space grids:           0.0000000118

  Overlap energy of the core charge distribution:               0.00000004446988
  Self energy of the core charge distribution:                -44.34715499673765
  Core Hamiltonian energy:                                     12.87729216075160
  Hartree energy:                                              18.47182689852817
  Exchange-correlation energy:                                 -4.22101754634376
  Dispersion energy:                                           -0.00000313047163

  Total energy:                                               -17.21905656980339

  outer SCF iter =    1 RMS gradient =   0.48E-06 energy =        -17.2190565698
  outer SCF loop converged in   1 iterations or    5 steps


 MOMENTS
  The electric/magnetic moments are written to file:
  water_dimer_dipole.out


 ENERGY| Total FORCE_EVAL ( QS ) energy (a.u.):              -17.219056569808917


 Temperature scaled to requested temperature:     31.79 K  ->     31.81 K
 MD| Old VCOM =    -0.0000021051    0.0000002314    0.0000006387 a.u.
 MD| New VCOM =    -0.0000000000    0.0000000000    0.0000000000 a.u
 MD| Old VANG =     0.0000000104   -0.0000015488   -0.0000000708 a.u.
 MD| New VANG =    -0.0000000000   -0.0000000000   -0.0000000000 a.u

 *******************************************************************************
 ENSEMBLE TYPE                =                                              NVT
 STEP NUMBER                  =                                               14
 TIME [fs]                    =                                         7.000000
 CONSERVED QUANTITY [hartree] =                              -0.172187934427E+02

                                              INSTANTANEOUS             AVERAGES
 CPU TIME [s]                 =                       40.55                45.22
 ENERGY DRIFT PER ATOM [K]    =         -0.971108540378E-01  -0.176877077782E+00
 POTENTIAL ENERGY[hartree]    =         -0.172190565698E+02  -0.172193379265E+02
 KINETIC ENERGY [hartree]     =          0.151095905905E-03   0.446855596129E-03
 TEMPERATURE [K]              =                      31.808               94.070
 *******************************************************************************


 Number of electrons:                                                          8
 Number of occupied orbitals:                                                  4
 Number of molecular orbitals:                                                 4

 Number of orbital functions:                                                 23
 Number of independent orbital functions:                                     23

 Extrapolation method: ASPC


 SCF WAVEFUNCTION OPTIMIZATION

  ----------------------------------- OT ---------------------------------------
  Minimizer      : DIIS                : direct inversion
                                         in the iterative subspace
                                         using   7 DIIS vectors
                                         safer DIIS on
  Preconditioner : FULL_ALL            : diagonalization, state selective
  Precond_solver : DEFAULT
  stepsize       :    0.15000000                  energy_gap     :    0.08000000
  eps_taylor     :   0.10000E-15                  max_taylor     :             4
  ----------------------------------- OT ---------------------------------------

  Step     Update method      Time    Convergence         Total energy    Change
  ------------------------------------------------------------------------------
     1 OT DIIS     0.15E+00    5.7     0.00009761       -17.2190162554 -1.72E+01
     2 OT DIIS     0.15E+00    6.7     0.00004966       -17.2190163213 -6.59E-08
     3 OT DIIS     0.15E+00    6.7     0.00002195       -17.2190163335 -1.22E-08
     4 OT DIIS     0.15E+00    6.8     0.00000182       -17.2190163370 -3.45E-09
     5 OT DIIS     0.15E+00    6.6     0.00000027       -17.2190163370 -3.47E-11

  *** SCF run converged in     5 steps ***


  Electronic density on regular grids:         -7.9999999884        0.0000000116
  Core density on regular grids:                7.9999999998       -0.0000000002
  Total charge density on r-space grids:        0.0000000114
  Total charge density g-space grids:           0.0000000114

  Overlap energy of the core charge distribution:               0.00000004868825
  Self energy of the core charge distribution:                -44.34715499673765
  Core Hamiltonian energy:                                     12.88565734219388
  Hartree energy:                                              18.46587641643081
  Exchange-correlation energy:                                 -4.22339209057488
  Dispersion energy:                                           -0.00000305699607

  Total energy:                                               -17.21901633699565

  outer SCF iter =    1 RMS gradient =   0.27E-06 energy =        -17.2190163370
  outer SCF loop converged in   1 iterations or    5 steps


 MOMENTS
  The electric/magnetic moments are written to file:
  water_dimer_dipole.out


 ENERGY| Total FORCE_EVAL ( QS ) energy (a.u.):              -17.219016336993846


 Temperature scaled to requested temperature:     24.16 K  ->     24.18 K
 MD| Old VCOM =    -0.0000023843    0.0000002526    0.0000007323 a.u.
 MD| New VCOM =     0.0000000000   -0.0000000000   -0.0000000000 a.u
 MD| Old VANG =     0.0000000128   -0.0000017532   -0.0000000783 a.u.
 MD| New VANG =     0.0000000000   -0.0000000000   -0.0000000000 a.u

 *******************************************************************************
 ENSEMBLE TYPE                =                                              NVT
 STEP NUMBER                  =                                               15
 TIME [fs]                    =                                         7.500000
 CONSERVED QUANTITY [hartree] =                              -0.172187923856E+02

                                              INSTANTANEOUS             AVERAGES
 CPU TIME [s]                 =                       40.68                44.92
 ENERGY DRIFT PER ATOM [K]    =          0.141562632435E-01  -0.164141521714E+00
 POTENTIAL ENERGY[hartree]    =         -0.172190163370E+02  -0.172193164872E+02
 KINETIC ENERGY [hartree]     =          0.114870918150E-03   0.424723284264E-03
 TEMPERATURE [K]              =                      24.182               89.411
 *******************************************************************************


 Number of electrons:                                                          8
 Number of occupied orbitals:                                                  4
 Number of molecular orbitals:                                                 4

 Number of orbital functions:                                                 23
 Number of independent orbital functions:                                     23

 Extrapolation method: ASPC


 SCF WAVEFUNCTION OPTIMIZATION

  ----------------------------------- OT ---------------------------------------
  Minimizer      : DIIS                : direct inversion
                                         in the iterative subspace
                                         using   7 DIIS vectors
                                         safer DIIS on
  Preconditioner : FULL_ALL            : diagonalization, state selective
  Precond_solver : DEFAULT
  stepsize       :    0.15000000                  energy_gap     :    0.08000000
  eps_taylor     :   0.10000E-15                  max_taylor     :             4
  ----------------------------------- OT ---------------------------------------

  Step     Update method      Time    Convergence         Total energy    Change
  ------------------------------------------------------------------------------
     1 OT DIIS     0.15E+00    5.8     0.00009235       -17.2189967457 -1.72E+01
     2 OT DIIS     0.15E+00    6.7     0.00003888       -17.2189968214 -7.56E-08
     3 OT DIIS     0.15E+00    6.5     0.00002280       -17.2189968330 -1.17E-08
     4 OT DIIS     0.15E+00    6.8     0.00000127       -17.2189968357 -2.72E-09
     5 OT DIIS     0.15E+00    6.6     0.00000034       -17.2189968357 -1.41E-11

  *** SCF run converged in     5 steps ***


  Electronic density on regular grids:         -7.9999999890        0.0000000110
  Core density on regular grids:                7.9999999998       -0.0000000002
  Total charge density on r-space grids:        0.0000000108
  Total charge density g-space grids:           0.0000000108

  Overlap energy of the core charge distribution:               0.00000005233187
  Self energy of the core charge distribution:                -44.34715499673765
  Core Hamiltonian energy:                                     12.89260271612645
  Hartree energy:                                              18.46090708825570
  Exchange-correlation energy:                                 -4.22534868160542
  Dispersion energy:                                           -0.00000301411501

[...]
  water_dimer_dipole.out


 ENERGY| Total FORCE_EVAL ( QS ) energy (a.u.):              -17.218363384079481


 Temperature scaled to requested temperature:    307.89 K  ->    307.91 K
 MD| Old VCOM =    -0.0000020631    0.0000000918    0.0000011535 a.u.
 MD| New VCOM =    -0.0000000000   -0.0000000000   -0.0000000000 a.u
 MD| Old VANG =    -0.0000000280   -0.0000015800   -0.0000000205 a.u.
 MD| New VANG =     0.0000000000    0.0000000000    0.0000000000 a.u

 *******************************************************************************
 ENSEMBLE TYPE                =                                              NVT
 STEP NUMBER                  =                                              624
 TIME [fs]                    =                                       312.000000
 CONSERVED QUANTITY [hartree] =                              -0.172187861729E+02

                                              INSTANTANEOUS             AVERAGES
 CPU TIME [s]                 =                       59.10                63.41
 ENERGY DRIFT PER ATOM [K]    =          0.668093057247E+00   0.104821221351E+01
 POTENTIAL ENERGY[hartree]    =         -0.172183633841E+02  -0.172184476541E+02
 KINETIC ENERGY [hartree]     =          0.146263143337E-02   0.117721278860E-02
 TEMPERATURE [K]              =                     307.908              247.823
 *******************************************************************************


 Number of electrons:                                                          8
 Number of occupied orbitals:                                                  4
 Number of molecular orbitals:                                                 4

 Number of orbital functions:                                                 23
 Number of independent orbital functions:                                     23

 Extrapolation method: ASPC


 SCF WAVEFUNCTION OPTIMIZATION

  ----------------------------------- OT ---------------------------------------
  Minimizer      : DIIS                : direct inversion
                                         in the iterative subspace
                                         using   7 DIIS vectors
                                         safer DIIS on
  Preconditioner : FULL_ALL            : diagonalization, state selective
  Precond_solver : DEFAULT
  stepsize       :    0.15000000                  energy_gap     :    0.08000000
  eps_taylor     :   0.10000E-15                  max_taylor     :             4
  ----------------------------------- OT ---------------------------------------

  Step     Update method      Time    Convergence         Total energy    Change
  ------------------------------------------------------------------------------
     1 OT DIIS     0.15E+00    7.5     0.00017785       -17.2185222404 -1.72E+01
     2 OT DIIS     0.15E+00    6.7     0.00009119       -17.2185224691 -2.29E-07
     3 OT DIIS     0.15E+00   10.4     0.00004114       -17.2185225136 -4.45E-08
     4 OT DIIS     0.15E+00    9.6     0.00000174       -17.2185225266 -1.30E-08
     5 OT DIIS     0.15E+00   11.5     0.00000037       -17.2185225266 -3.18E-11

  *** SCF run converged in     5 steps ***


  Electronic density on regular grids:         -7.9999999914        0.0000000086
  Core density on regular grids:                7.9999999997       -0.0000000003
  Total charge density on r-space grids:        0.0000000083
  Total charge density g-space grids:           0.0000000083

  Overlap energy of the core charge distribution:               0.00000007744104
  Self energy of the core charge distribution:                -44.34715499673765
  Core Hamiltonian energy:                                     12.93252246693986
  Hartree energy:                                              18.43081953496414
  Exchange-correlation energy:                                 -4.23470502958447
  Dispersion energy:                                           -0.00000457960544

  Total energy:                                               -17.21852252658253

  outer SCF iter =    1 RMS gradient =   0.37E-06 energy =        -17.2185225266
  outer SCF loop converged in   1 iterations or    5 steps


 MOMENTS
  The electric/magnetic moments are written to file:
  water_dimer_dipole.out


 ENERGY| Total FORCE_EVAL ( QS ) energy (a.u.):              -17.218522526586931


 Temperature scaled to requested temperature:    327.34 K  ->    327.36 K
 MD| Old VCOM =    -0.0000021182    0.0000001131    0.0000011684 a.u.
 MD| New VCOM =    -0.0000000000   -0.0000000000    0.0000000000 a.u
 MD| Old VANG =    -0.0000000538   -0.0000016217   -0.0000000043 a.u.
 MD| New VANG =     0.0000000000   -0.0000000000    0.0000000000 a.u

 *******************************************************************************
 ENSEMBLE TYPE                =                                              NVT
 STEP NUMBER                  =                                              625
 TIME [fs]                    =                                       312.500000
 CONSERVED QUANTITY [hartree] =                              -0.172187827302E+02

                                              INSTANTANEOUS             AVERAGES
 CPU TIME [s]                 =                       62.32                63.40
 ENERGY DRIFT PER ATOM [K]    =          0.103046867265E+01   0.104818382385E+01
 POTENTIAL ENERGY[hartree]    =         -0.172185225266E+02  -0.172184477739E+02
 KINETIC ENERGY [hartree]     =          0.155504189292E-02   0.117781731517E-02
 TEMPERATURE [K]              =                     327.362              247.950
 *******************************************************************************


 Number of electrons:                                                          8
 Number of occupied orbitals:                                                  4
 Number of molecular orbitals:                                                 4

 Number of orbital functions:                                                 23
 Number of independent orbital functions:                                     23

 Extrapolation method: ASPC


 SCF WAVEFUNCTION OPTIMIZATION

  ----------------------------------- OT ---------------------------------------
  Minimizer      : DIIS                : direct inversion
                                         in the iterative subspace
                                         using   7 DIIS vectors
                                         safer DIIS on
  Preconditioner : FULL_ALL            : diagonalization, state selective
  Precond_solver : DEFAULT
  stepsize       :    0.15000000                  energy_gap     :    0.08000000
  eps_taylor     :   0.10000E-15                  max_taylor     :             4
  ----------------------------------- OT ---------------------------------------

  Step     Update method      Time    Convergence         Total energy    Change
  ------------------------------------------------------------------------------
     1 OT DIIS     0.15E+00   13.5     0.00026898       -17.2186762908 -1.72E+01
     2 OT DIIS     0.15E+00   16.3     0.00013480       -17.2186767956 -5.05E-07
     3 OT DIIS     0.15E+00    9.1     0.00005870       -17.2186768886 -9.30E-08
     4 OT DIIS     0.15E+00    9.9     0.00000437       -17.2186769140 -2.54E-08
     5 OT DIIS     0.15E+00   19.7     0.00000083       -17.2186769142 -2.00E-10

  *** SCF run converged in     5 steps ***


  Electronic density on regular grids:         -7.9999999860        0.0000000140
  Core density on regular grids:                7.9999999997       -0.0000000003
  Total charge density on r-space grids:        0.0000000138
  Total charge density g-space grids:           0.0000000137

  Overlap energy of the core charge distribution:               0.00000008127792
  Self energy of the core charge distribution:                -44.34715499673765
  Core Hamiltonian energy:                                     12.93509523750115
  Hartree energy:                                              18.42907293687759
  Exchange-correlation energy:                                 -4.23568586062056
  Dispersion energy:                                           -0.00000431252274

  Total energy:                                               -17.21867691422429

  outer SCF iter =    1 RMS gradient =   0.83E-06 energy =        -17.2186769142
  outer SCF loop converged in   1 iterations or    5 steps


 MOMENTS
  The electric/magnetic moments are written to file:
  water_dimer_dipole.out


 ENERGY| Total FORCE_EVAL ( QS ) energy (a.u.):              -17.218676914233122


 Temperature scaled to requested temperature:    336.03 K  ->    336.05 K
 MD| Old VCOM =    -0.0000022332    0.0000001432    0.0000012059 a.u.
 MD| New VCOM =    -0.0000000000   -0.0000000000    0.0000000000 a.u
 MD| Old VANG =    -0.0000000972   -0.0000016970    0.0000000116 a.u.
 MD| New VANG =    -0.0000000000    0.0000000000   -0.0000000000 a.u

 *******************************************************************************
 ENSEMBLE TYPE                =                                              NVT
 STEP NUMBER                  =                                              626
 TIME [fs]                    =                                       313.000000
 CONSERVED QUANTITY [hartree] =                              -0.172187795803E+02

                                              INSTANTANEOUS             AVERAGES
 CPU TIME [s]                 =                       89.64                63.45
 ENERGY DRIFT PER ATOM [K]    =          0.136201520017E+01   0.104868515192E+01
 POTENTIAL ENERGY[hartree]    =         -0.172186769142E+02  -0.172184481400E+02
 KINETIC ENERGY [hartree]     =          0.159633236683E-02   0.117848586956E-02
 TEMPERATURE [K]              =                     336.054              248.091
 *******************************************************************************


 Number of electrons:                                                          8
 Number of occupied orbitals:                                                  4
 Number of molecular orbitals:                                                 4

 Number of orbital functions:                                                 23
 Number of independent orbital functions:                                     23

 Extrapolation method: ASPC


 SCF WAVEFUNCTION OPTIMIZATION

  ----------------------------------- OT ---------------------------------------
  Minimizer      : DIIS                : direct inversion
                                         in the iterative subspace
                                         using   7 DIIS vectors
                                         safer DIIS on
  Preconditioner : FULL_ALL            : diagonalization, state selective
  Precond_solver : DEFAULT
  stepsize       :    0.15000000                  energy_gap     :    0.08000000
  eps_taylor     :   0.10000E-15                  max_taylor     :             4
  ----------------------------------- OT ---------------------------------------

  Step     Update method      Time    Convergence         Total energy    Change
  ------------------------------------------------------------------------------
     1 OT DIIS     0.15E+00    8.5     0.00023520       -17.2188906836 -1.72E+01
     2 OT DIIS     0.15E+00   14.8     0.00011754       -17.2188911026 -4.19E-07
     3 OT DIIS     0.15E+00   10.1     0.00005680       -17.2188911801 -7.75E-08
     4 OT DIIS     0.15E+00   33.5     0.00000208       -17.2188912037 -2.36E-08
     5 OT DIIS     0.15E+00   11.2     0.00000050       -17.2188912037 -4.46E-11

  *** SCF run converged in     5 steps ***


  Electronic density on regular grids:         -7.9999999793        0.0000000207
  Core density on regular grids:                7.9999999997       -0.0000000003
  Total charge density on r-space grids:        0.0000000204
  Total charge density g-space grids:           0.0000000204

  Overlap energy of the core charge distribution:               0.00000007946193
  Self energy of the core charge distribution:                -44.34715499673765
  Core Hamiltonian energy:                                     12.93068256120835
  Hartree energy:                                              18.43231677349548
  Exchange-correlation energy:                                 -4.23473151890307
  Dispersion energy:                                           -0.00000410222868

  Total energy:                                               -17.21889120370364

  outer SCF iter =    1 RMS gradient =   0.50E-06 energy =        -17.2188912037
  outer SCF loop converged in   1 iterations or    5 steps


 MOMENTS
  The electric/magnetic moments are written to file:
  water_dimer_dipole.out


 ENERGY| Total FORCE_EVAL ( QS ) energy (a.u.):              -17.218891203706420


 Temperature scaled to requested temperature:    358.07 K  ->    358.09 K
 MD| Old VCOM =    -0.0000022124    0.0000001696    0.0000011569 a.u.
 MD| New VCOM =    -0.0000000000    0.0000000000    0.0000000000 a.u
 MD| Old VANG =    -0.0000001417   -0.0000016437    0.0000000228 a.u.
 MD| New VANG =    -0.0000000000   -0.0000000000    0.0000000000 a.u

 *******************************************************************************
 ENSEMBLE TYPE                =                                              NVT
 STEP NUMBER                  =                                              627
 TIME [fs]                    =                                       313.500000
 CONSERVED QUANTITY [hartree] =                              -0.172187795078E+02

                                              INSTANTANEOUS             AVERAGES
 CPU TIME [s]                 =                       89.78                63.49
 ENERGY DRIFT PER ATOM [K]    =          0.136964672754E+01   0.104919705236E+01
 POTENTIAL ENERGY[hartree]    =         -0.172188912037E+02  -0.172184488466E+02
 KINETIC ENERGY [hartree]     =          0.170099257472E-02   0.117931921359E-02
 TEMPERATURE [K]              =                     358.087              248.266
 *******************************************************************************


 Number of electrons:                                                          8
 Number of occupied orbitals:                                                  4
 Number of molecular orbitals:                                                 4

 Number of orbital functions:                                                 23
 Number of independent orbital functions:                                     23

 Extrapolation method: ASPC


 SCF WAVEFUNCTION OPTIMIZATION

  ----------------------------------- OT ---------------------------------------
  Minimizer      : DIIS                : direct inversion
                                         in the iterative subspace
                                         using   7 DIIS vectors
                                         safer DIIS on
  Preconditioner : FULL_ALL            : diagonalization, state selective
  Precond_solver : DEFAULT
  stepsize       :    0.15000000                  energy_gap     :    0.08000000
  eps_taylor     :   0.10000E-15                  max_taylor     :             4
  ----------------------------------- OT ---------------------------------------

  Step     Update method      Time    Convergence         Total energy    Change
  ------------------------------------------------------------------------------
     1 OT DIIS     0.15E+00    9.0     0.00025770       -17.2191477336 -1.72E+01
     2 OT DIIS     0.15E+00    6.4     0.00010417       -17.2191483071 -5.74E-07
     3 OT DIIS     0.15E+00    8.0     0.00005957       -17.2191483883 -8.12E-08
     4 OT DIIS     0.15E+00   15.3     0.00000522       -17.2191484077 -1.94E-08
     5 OT DIIS     0.15E+00   42.5     0.00000087       -17.2191484079 -2.40E-10

  *** SCF run converged in     5 steps ***


  Electronic density on regular grids:         -7.9999999723        0.0000000277
  Core density on regular grids:                7.9999999997       -0.0000000003
  Total charge density on r-space grids:        0.0000000274
  Total charge density g-space grids:           0.0000000274

  Overlap energy of the core charge distribution:               0.00000007199210
  Self energy of the core charge distribution:                -44.34715499673765
  Core Hamiltonian energy:                                     12.92001605497716
  Hartree energy:                                              18.44000530723381
  Exchange-correlation energy:                                 -4.23201088281717
  Dispersion energy:                                           -0.00000396256611

  Total energy:                                               -17.21914840791785

  outer SCF iter =    1 RMS gradient =   0.87E-06 energy =        -17.2191484079
  outer SCF loop converged in   1 iterations or    5 steps


 MOMENTS
  The electric/magnetic moments are written to file:
  water_dimer_dipole.out


 ENERGY| Total FORCE_EVAL ( QS ) energy (a.u.):              -17.219148407929648


 Temperature scaled to requested temperature:    436.03 K  ->    436.06 K
 MD| Old VCOM =    -0.0000025628    0.0000002335    0.0000012833 a.u.
 MD| New VCOM =     0.0000000000    0.0000000000    0.0000000000 a.u
 MD| Old VANG =    -0.0000002068   -0.0000018412    0.0000000320 a.u.
 MD| New VANG =    -0.0000000000   -0.0000000000    0.0000000000 a.u

 *******************************************************************************
 ENSEMBLE TYPE                =                                              NVT
 STEP NUMBER                  =                                              628
 TIME [fs]                    =                                       314.000000
 CONSERVED QUANTITY [hartree] =                              -0.172187835095E+02

                                              INSTANTANEOUS             AVERAGES
 CPU TIME [s]                 =                       99.25                63.55
 ENERGY DRIFT PER ATOM [K]    =          0.948443224688E+00   0.104903661633E+01
 POTENTIAL ENERGY[hartree]    =         -0.172191484079E+02  -0.172184499606E+02
 KINETIC ENERGY [hartree]     =          0.207138582143E-02   0.118073970182E-02
 TEMPERATURE [K]              =                     436.061              248.565
 *******************************************************************************


 Number of electrons:                                                          8
 Number of occupied orbitals:                                                  4
 Number of molecular orbitals:                                                 4

 Number of orbital functions:                                                 23
 Number of independent orbital functions:                                     23

 Extrapolation method: ASPC


 SCF WAVEFUNCTION OPTIMIZATION

  ----------------------------------- OT ---------------------------------------
  Minimizer      : DIIS                : direct inversion
                                         in the iterative subspace
                                         using   7 DIIS vectors
                                         safer DIIS on
  Preconditioner : FULL_ALL            : diagonalization, state selective
  Precond_solver : DEFAULT
  stepsize       :    0.15000000                  energy_gap     :    0.08000000
  eps_taylor     :   0.10000E-15                  max_taylor     :             4
  ----------------------------------- OT ---------------------------------------

  Step     Update method      Time    Convergence         Total energy    Change
  ------------------------------------------------------------------------------
     1 OT DIIS     0.15E+00    7.7     0.00028040       -17.2194148938 -1.72E+01
     2 OT DIIS     0.15E+00   10.6     0.00013909       -17.2194155067 -6.13E-07
     3 OT DIIS     0.15E+00   29.8     0.00007057       -17.2194156178 -1.11E-07
