       8
 i =        1, E =       -45.0802777999
  C         0.8892855151        2.6536656180        2.6536703288
  C         0.0338429896        0.0338441919        0.0338430466
  C         0.9074606865        0.9074545518        0.9074656106
  C         0.0174500607        1.7778131919        1.7777985137
  C         2.6536610861        2.6536691724        0.8892803408
  C         1.7778096771        0.0174479981        1.7778132092
  C         2.6536737496        0.8892918001        2.6536651029
  C         1.7778022796        1.7777996095        0.0174499216
       8
 i =        2, E =       -45.0805301381
  C         0.8860544874        2.6489676474        2.6489733820
  C         0.0366063443        0.0366083665        0.0366065751
  C         0.9121428423        0.9121339943        0.9121498328
  C         0.0116485505        1.7736831281        1.7736641220
  C         2.6489611469        2.6489723553        0.8860475360
  C         1.7736791294        0.0116464181        1.7736842348
  C         2.6489789114        0.8860632964        2.6489668000
  C         1.7736686793        1.7736642761        0.0116484230
       8
 i =        3, E =       -45.0808343721
  C         0.8732591510        2.6414705569        2.6414790556
  C         0.0428826728        0.0428860911        0.0428837558
  C         0.9198180642        0.9198022941        0.9198307680
  C        -0.0044810960        1.7671492841        1.7671184588
  C         2.6414587037        2.6414771035        0.8732471185
  C         1.7671439684       -0.0044846738        1.7671520781
  C         2.6414893500        0.8732743489        2.6414691455
  C         1.7671245296        1.7671169193       -0.0044812566
       8
 i =        4, E =       -45.0726115033
  C         0.7552131295        2.5857858754        2.5858263497
  C         0.1028720222        0.1028909182        0.1028789059
  C         0.9894954811        0.9894178995        0.9895562874
  C        -0.1464794349        1.7163729691        1.7162478501
  C         2.5857394149        2.5858137464        0.7551605940
  C         1.7163575685       -0.1465055553        1.7163947159
  C         2.5858648651        0.7552829276        2.5857808460
  C         1.7162665776        1.7162306006       -0.1464730251
       8
 i =        5, E =       -45.0811090329
  C         0.8611234228        2.6361032445        2.6361263096
  C         0.0451315460        0.0451444764        0.0451266466
  C         0.9233511282        0.9233291267        0.9233663135
  C        -0.0187933760        1.7611293398        1.7610960288
  C         2.6361050237        2.6361233255        0.8611096814
  C         1.7611205548       -0.0188091393        1.7611357755
  C         2.6361221419        0.8611440477        2.6361012072
  C         1.7611068766        1.7610935357       -0.0187842575
       8
 i =        6, E =       -45.0813003001
  C         0.8525522563        2.6330825741        2.6331201261
  C         0.0480292377        0.0480539685        0.0480161979
  C         0.9267967548        0.9267675424        0.9268151555
  C        -0.0281809430        1.7579772636        1.7579409058
  C         2.6330995903        2.6331152958        0.8525361300
  C         1.7579657049       -0.0282086690        1.7579853169
  C         2.6330997167        0.8525793877        2.6330804039
  C         1.7579560338        1.7579397530       -0.0281635506
       8
 i =        7, E =       -45.0762414792
  C         0.7526038827        2.6051017163        2.6053484578
  C         0.0916625820        0.0918865659        0.0915135771
  C         0.9789004665        0.9787359334        0.9789887099
  C        -0.1383667340        1.7264540831        1.7263400829
  C         2.6053392174        2.6053119693        0.7525216071
  C         1.7264158517       -0.1385863198        1.7264797356
  C         2.6050882455        0.7527637868        2.6050916411
  C         1.7264050881        1.7263665809       -0.1382214483
       8
 i =        8, E =       -45.0815628965
  C         0.8420626422        2.6313931274        2.6314505180
  C         0.0518487582        0.0519119947        0.0518134962
  C         0.9313527737        0.9312783250        0.9314011756
  C        -0.0386834920        1.7552676750        1.7551927770
  C         2.6314255845        2.6314365583        0.8420168770
  C         1.7552681705       -0.0387424980        1.7552790430
  C         2.6314091536        0.8421352034        2.6313889939
  C         1.7552011175        1.7551985131       -0.0386509929
       8
 i =        9, E =       -45.0817232507
  C         0.8342860201        2.6301626207        2.6302476013
  C         0.0553108999        0.0554231175        0.0552463099
  C         0.9356955543        0.9355726309        0.9357732928
  C        -0.0467980900        1.7533105457        1.7532031995
  C         2.6302277010        2.6302294347        0.8342084846
  C         1.7533234021       -0.0469066366        1.7533290685
  C         2.6301674023        0.8344098626        2.6301499034
  C         1.7532056702        1.7532146826       -0.0467354328
       8
 i =       10, E =       -45.0817301297
  C         0.8054206350        2.6257258006        2.6260138562
  C         0.0695488239        0.0699958617        0.0692786987
  C         0.9540856794        0.9536447418        0.9543539005
  C        -0.0777326200        1.7461225232        1.7458220800
  C         2.6260384522        2.6259559388        0.8051404134
  C         1.7462186800       -0.0781747450        1.7461875779
  C         2.6256461229        0.8058782381        2.6256700598
  C         1.7457855762        1.7458742472       -0.0774646189
       8
 i =       11, E =       -45.0818777871
  C         0.8224830543        2.6287172374        2.6289704096
  C         0.0613691121        0.0617617843        0.0611320509
  C         0.9438268061        0.9434402394        0.9440626320
  C        -0.0594398324        1.7505431977        1.7502852966
  C         2.6289937133        2.6289143400        0.8222383857
  C         1.7506329528       -0.0598258810        1.7506017815
  C         2.6286459052        0.8228835072        2.6286734505
  C         1.7502482782        1.7503294383       -0.0592063275
       8
 i =       12, E =       -45.0818891907
  C         0.8198267396        2.6284964977        2.6288755721
  C         0.0630919634        0.0637057997        0.0627196173
  C         0.9461348750        0.9455348067        0.9465003361
  C        -0.0622901324        1.7501277060        1.7497503775
  C         2.6289351556        2.6287875774        0.8194489292
  C         1.7502844770       -0.0628938155        1.7502163847
  C         2.6283620620        0.8204466052        2.6284292864
  C         1.7496756181        1.7498214483       -0.0619243348
       8
 i =       13, E =       -45.0818919263
  C         0.8191846573        2.6287089638        2.6293446463
  C         0.0641153560        0.0651932014        0.0634601455
  C         0.9475433873        0.9464935449        0.9481829146
  C        -0.0629362174        1.7504391152        1.7498153329
  C         2.6294837885        2.6291879966        0.8185248603
  C         1.7507454621       -0.0639956109        1.7505932870
  C         2.6284385662        0.8202677955        2.6285931834
  C         1.7496526125        1.7499399902       -0.0622943966
       8
 i =       14, E =       -45.0818985397
  C         0.8191320034        2.6295456661        2.6311255201
  C         0.0660866271        0.0688900129        0.0643811788
  C         0.9503409618        0.9476174559        0.9520021865
  C        -0.0627071579        1.7518925250        1.7503566793
  C         2.6315664563        2.6307122037        0.8174204960
  C         1.7527644179       -0.0654643328        1.7522898352
  C         2.6287611788        0.8219398024        2.6292453773
  C         1.7498565418        1.7506778144       -0.0610406569
       8
 i =       15, E =       -45.0471092895
  C         0.9065280811        2.5991086303        2.7153864567
  C         0.0587740198        0.2084570437       -0.0382288247
  C         0.9179385216        0.8098973081        0.9901423642
  C         0.0263870584        1.7580918451        1.7209764336
  C         2.7267164558        2.6569381141        0.8098131134
  C         1.8300369268       -0.0882402054        1.8134016988
  C         2.5700383847        1.0719398024        2.6153864418
  C         1.6801211337        1.6993152677        0.0872062418
       8
 i =       16, E =       -45.0738469741
  C         0.7974105888        2.6684141520        2.6761419130
  C         0.1402916330        0.1706976594        0.1230035842
  C         1.0603865559        1.0224362593        1.0825918430
  C        -0.0746420477        1.8038903784        1.7787965200
  C         2.6859182878        2.6802679984        0.7801542146
  C         1.8088116565       -0.1125930905        1.7995874993
  C         2.6544980625        0.8235594674        2.6571378244
  C         1.7748029629        1.7911805147       -0.0497547333
       8
 i =       17, E =       -45.0819340453
  C         0.8180441853        2.6071281653        2.5721143496
  C         0.0059854967       -0.0524006256        0.0416137085
  C         0.8657974044        0.9208935373        0.8325918430
  C        -0.0723255338        1.7078805998        1.7378160792
  C         2.5641030812        2.5828695810        0.8538970381
  C         1.6880640663       -0.0171320759        1.6970416421
  C         2.6218978399        0.7580710041        2.6110089918
  C         1.7486632410        1.7329143546       -0.1052263825
       8
 i =       18, E =       -45.0823702973
  C         0.8172251166        2.6094478717        2.5915319098
  C         0.0209021015       -0.0296099311        0.0515814834
  C         0.8816071399        0.9370118419        0.8570503387
  C        -0.0682207343        1.7232324953        1.7410262243
  C         2.5694218648        2.5935268770        0.8462144775
  C         1.6942608524       -0.0263332821        1.7087846249
  C         2.6293924018        0.7636229652        2.6089440280
  C         1.7583798676        1.7296413799       -0.1025663094
       8
 i =       19, E =       -45.0831526970
  C         0.8081674716        2.6051670610        2.6049368698
  C         0.0302007454       -0.0284609881        0.0722128358
  C         0.8919778620        0.9639807856        0.8615718822
  C        -0.0746831737        1.7337206595        1.7379009600
  C         2.5525626284        2.5976643634        0.8430629653
  C         1.6765394870       -0.0278220164        1.7131628614
  C         2.6486255641        0.7422116305        2.5995790371
  C         1.7758019339        1.7174793817       -0.1242215356
       8
 i =       20, E =       -45.0831245351
  C         0.7756684515        2.5963159911        2.6192235788
  C         0.0449785429       -0.0333329854        0.1275797739
  C         0.9183414297        1.0216939558        0.8567636325
  C        -0.0965115984        1.7444644185        1.7291063975
  C         2.5106708379        2.6027150230        0.8477196701
  C         1.6289263805       -0.0260740334        1.7237983447
  C         2.6887027349        0.6870719803        2.5807954550
  C         1.8126519526        1.7054473810       -0.1807376059
       8
 i =       21, E =       -45.0843508981
  C         0.7850760117        2.6109508207        2.6055674904
  C         0.0444466071       -0.0212734540        0.1130948766
  C         0.9175620314        1.0012046534        0.8678449587
  C        -0.0915791250        1.7342072474        1.7423461439
  C         2.5400227368        2.5958344236        0.8470142430
  C         1.6595316720       -0.0285175007        1.7181794733
  C         2.6662968628        0.7115579365        2.5989799400
  C         1.7900932429        1.7252335895       -0.1579214153
       8
 i =       22, E =       -45.0845242029
  C         0.7788827468        2.6136080633        2.5912554082
  C         0.0324924465       -0.0433640757        0.1187209229
  C         0.9026991659        0.9993069977        0.8467870559
  C        -0.0983245399        1.7240836470        1.7421758865
  C         2.5233433663        2.5819524963        0.8568440044
  C         1.6469197566       -0.0206039647        1.7047977531
  C         2.6622346171        0.6967083563        2.5986118622
  C         1.7857930825        1.7279924753       -0.1735309070
       8
 i =       23, E =       -45.0847530458
  C         0.7675719398        2.6273370074        2.6010301100
  C         0.0421475306       -0.0227136319        0.1461159113
  C         0.9211053858        1.0193492783        0.8672892362
  C        -0.1055740364        1.7342532846        1.7511040877
  C         2.5237227398        2.5848753830        0.8585833533
  C         1.6469999465       -0.0281850498        1.7111987391
  C         2.6653360358        0.6917764888        2.6000750282
  C         1.7895133035        1.7393028902       -0.1826801594
       8
 i =       24, E =       -45.0848247780
  C         0.7686134112        2.6224684320        2.6013103943
  C         0.0380991474       -0.0262135084        0.1396475991
  C         0.9132881458        1.0138437997        0.8644534897
  C        -0.1070467835        1.7355833705        1.7478469842
  C         2.5192883216        2.5888103153        0.8600572951
  C         1.6440541634       -0.0251809606        1.7137236674
  C         2.6628983865        0.6963917388        2.5992950544
  C         1.7878700842        1.7373919359       -0.1770559713
       8
 i =       25, E =       -45.0848867047
  C         0.7635420871        2.6224331601        2.6032132499
  C         0.0319818979       -0.0263163247        0.1406771792
  C         0.9052879186        1.0146261353        0.8637642034
  C        -0.1126655635        1.7377958450        1.7486982410
  C         2.5114223944        2.5917474780        0.8638291794
  C         1.6367921475       -0.0216754185        1.7165640521
  C         2.6577257230        0.6989170666        2.6000253590
  C         1.7835433891        1.7390702125       -0.1747546636
       8
 i =       26, E =       -45.0843558762
  C         0.7046947245        2.6322105652        2.6284323157
  C        -0.0323704550       -0.0132032977        0.1583386433
  C         0.8257238008        1.0309222790        0.8724899344
  C        -0.1774883301        1.7662828802        1.7651913160
  C         2.4322384655        2.6257702926        0.9006223170
  C         1.5636090032        0.0146103179        1.7503296303
  C         2.5977251903        0.7310070437        2.6167222570
  C         1.7286635619        1.7626283492       -0.1457094213
       8
 i =       27, E =       -45.0851146600
  C         0.7438396271        2.6287774284        2.6124769299
  C         0.0106546219       -0.0191242582        0.1476462181
  C         0.8815066218        1.0214569051        0.8686479866
  C        -0.1325063205        1.7466715164        1.7563860458
  C         2.4883364652        2.6020122814        0.8755140105
  C         1.6144791451       -0.0104205043        1.7273883294
  C         2.6369552887        0.7104630508        2.6072930108
  C         1.7640809463        1.7482411328       -0.1645119461
       8
 i =       28, E =       -45.0851894252
  C         0.7356126188        2.6329190498        2.6174218047
  C         0.0032575616       -0.0131544594        0.1517288993
  C         0.8743703508        1.0256830837        0.8744577532
  C        -0.1408793296        1.7515144734        1.7602918955
  C         2.4806645130        2.6080548862        0.8799189345
  C         1.6073012933       -0.0056034583        1.7336530086
  C         2.6287790231        0.7169759021        2.6128150402
  C         1.7555516251        1.7534578689       -0.1585292970
       8
 i =       29, E =       -45.0852290402
  C         0.7298304743        2.6390651543        2.6223711481
  C        -0.0012638135       -0.0053916800        0.1560766543
  C         0.8730864696        1.0302872379        0.8821827500
  C        -0.1452731097        1.7553742730        1.7646994029
  C         2.4786967935        2.6127361728        0.8821486798
  C         1.6048184578       -0.0028071351        1.7386554749
  C         2.6230354092        0.7229094647        2.6195043593
  C         1.7485657312        1.7583613673       -0.1529336622
       8
 i =       30, E =       -45.0852371096
  C         0.7306755852        2.6399491718        2.6211453972
  C        -0.0007782148       -0.0063391626        0.1561355955
  C         0.8740281565        1.0306170591        0.8820164877
  C        -0.1443999347        1.7546766842        1.7650295469
  C         2.4800293530        2.6103586081        0.8803782310
  C         1.6058754777       -0.0038785046        1.7360924239
  C         2.6240931478        0.7204391326        2.6191333877
  C         1.7487407049        1.7568484263       -0.1550441349
       8
 i =       31, E =       -45.0852378333
  C         0.7304399595        2.6397731812        2.6207620421
  C        -0.0010686069       -0.0064357153        0.1556489776
  C         0.8741307322        1.0304328806        0.8816395187
  C        -0.1443310249        1.7541846219        1.7648408248
  C         2.4805745320        2.6101954466        0.8798948057
  C         1.6055497312       -0.0045668184        1.7355100490
  C         2.6237748633        0.7198359760        2.6187202836
  C         1.7488051875        1.7565997410       -0.1551932197
       8
 i =       32, E =       -45.0852378335
  C         0.7304399595        2.6397731812        2.6207620421
  C        -0.0010686069       -0.0064357153        0.1556489776
  C         0.8741307322        1.0304328806        0.8816395187
  C        -0.1443310249        1.7541846219        1.7648408248
  C         2.4805745320        2.6101954466        0.8798948057
  C         1.6055497312       -0.0045668184        1.7355100490
  C         2.6237748633        0.7198359760        2.6187202836
  C         1.7488051875        1.7565997410       -0.1551932197
