       8
 i =        1, E =       -44.9681897310
  C         0.8204999963        2.7564672346        2.7564609223
  C        -0.0301967276       -0.0301930185       -0.0301755318
  C         0.8993308001        0.8993217952        0.8993118950
  C        -0.0791809527        1.8037018701        1.8036990065
  C         2.7564477667        2.7564547438        0.8205219449
  C         1.8037043917       -0.0791824042        1.8037164104
  C         2.7564749629        0.8205108072        2.7564597748
  C         1.8037098438        1.8037090290       -0.0792038317
       8
 i =        2, E =       -44.9736861977
  C         0.8835123226        2.7594995378        2.7595023068
  C        -0.0936871078       -0.0936852045       -0.0936892983
  C         0.8595506453        0.8595547975        0.8595554868
  C        -0.0616867401        1.8119195499        1.8119263081
  C         2.7595029441        2.7595011711        0.8835101771
  C         1.8119199756       -0.0616871073        1.8119197270
  C         2.7594960594        0.8835106400        2.7595008159
  C         1.8119217604        1.8119207913       -0.0616818702
       8
 i =        3, E =       -44.9747781907
  C         0.8681473133        2.7522421998        2.7522430149
  C        -0.0752080595       -0.0752080118       -0.0752064555
  C         0.8713287565        0.8713294333        0.8713302242
  C        -0.0723433664        1.8097656586        1.8097661716
  C         2.7522414799        2.7522424594        0.8681484009
  C         1.8097653202       -0.0723431615        1.8097664621
  C         2.7522423084        0.8681476477        2.7522430393
  C         1.8097655233        1.8097659376       -0.0723420321
       8
 i =        4, E =       -44.9748332770
  C         0.8651529213        2.7512288674        2.7512294490
  C        -0.0768858937       -0.0768854476       -0.0768855230
  C         0.8678912339        0.8678916022        0.8678923561
  C        -0.0752965770        1.8087269839        1.8087276375
  C         2.7512287918        2.7512288903        0.8651532387
  C         1.8087268982       -0.0752965513        1.8087274159
  C         2.7512286630        0.8651529592        2.7512294255
  C         1.8087268136        1.8087272106       -0.0752956417
       8
 i =        5, E =       -44.9748524590
  C         0.8639380759        2.7492361272        2.7492359837
  C        -0.0786919854       -0.0786921557       -0.0786914181
  C         0.8643949687        0.8643948505        0.8643947434
  C        -0.0780095131        1.8070404568        1.8070402678
  C         2.7492355657        2.7492358605        0.8639385434
  C         1.8070403393       -0.0780094309        1.8070407363
  C         2.7492363017        0.8639382597        2.7492360228
  C         1.8070404859        1.8070405185       -0.0780097998
       8
 i =        6, E =       -44.9748537806
  C         0.8638140767        2.7488953417        2.7488954976
  C        -0.0787398537       -0.0787396384       -0.0787402972
  C         0.8639271622        0.8639272589        0.8639274280
  C        -0.0785272377        1.8065037017        1.8065040064
  C         2.7488957258        2.7488954434        0.8638137170
  C         1.8065037784       -0.0785272798        1.8065036391
  C         2.7488951120        0.8638139399        2.7488954297
  C         1.8065037502        1.8065037324       -0.0785269426
       8
 i =        7, E =       -44.9748537802
  C         0.8638140767        2.7488953417        2.7488954976
  C        -0.0787398537       -0.0787396384       -0.0787402972
  C         0.8639271622        0.8639272589        0.8639274280
  C        -0.0785272377        1.8065037017        1.8065040064
  C         2.7488957258        2.7488954434        0.8638137170
  C         1.8065037784       -0.0785272798        1.8065036391
  C         2.7488951120        0.8638139399        2.7488954297
  C         1.8065037502        1.8065037324       -0.0785269426
