       8
 i =        1, E =       -45.1005973008
  C         0.8932097583        2.6702035967        2.6702068833
  C         0.0075005582        0.0074945045        0.0074979017
  C         0.8947077712        0.8947124984        0.8947163187
  C         0.0062220945        1.7825624011        1.7825520365
  C         2.6701998213        2.6702083346        0.8932020302
  C         1.7825557556        0.0062283481        1.7825575074
  C         2.6702133503        0.8932065048        2.6702056493
  C         1.7825541760        1.7825472083        0.0062249388
       8
 i =        2, E =       -45.1006328736
  C         0.8920242858        2.6675725147        2.6675745816
  C         0.0058425408        0.0058376771        0.0058405752
  C         0.8933122066        0.8933151749        0.8933187124
  C         0.0047061580        1.7801179294        1.7801095865
  C         2.6675685873        2.6675758421        0.8920177223
  C         1.7801126054        0.0047110088        1.7801140104
  C         2.6675797747        0.8920212943        2.6675738801
  C         1.7801108629        1.7801055395        0.0047081089
       8
 i =        3, E =       -45.1006646482
  C         0.8883852877        2.6627180097        2.6627179561
  C         0.0014034878        0.0014015461        0.0014031340
  C         0.8890584437        0.8890587948        0.8890609162
  C         0.0006700163        1.7754075317        1.7754040423
  C         2.6627152417        2.6627183928        0.8883823344
  C         1.7754056026        0.0006717557        1.7754058913
  C         2.6627204117        0.8883839972        2.6627182552
  C         1.7754038992        1.7754021545        0.0006702898
       8
 i =        4, E =       -45.1006694850
  C         0.8875691167        2.6623217901        2.6623215749
  C         0.0003450441        0.0003440130        0.0003449982
  C         0.8878993457        0.8878994919        0.8879007208
  C        -0.0000648176        1.7748985180        1.7748966500
  C         2.6623201779        2.6623217411        0.8875675802
  C         1.7748976332       -0.0000639045        1.7748976326
  C         2.6623230654        0.8875685425        2.6623219245
  C         1.7748964480        1.7748956185       -0.0000647563
       8
 i =        5, E =       -45.1006694841
  C         0.8875691167        2.6623217901        2.6623215749
  C         0.0003450441        0.0003440130        0.0003449982
  C         0.8878993457        0.8878994919        0.8879007208
  C        -0.0000648176        1.7748985180        1.7748966500
  C         2.6623201779        2.6623217411        0.8875675802
  C         1.7748976332       -0.0000639045        1.7748976326
  C         2.6623230654        0.8875685425        2.6623219245
  C         1.7748964480        1.7748956185       -0.0000647563
