       8
 i =        1, E =       -44.9707979613
  C         0.8256414791        2.7525757324        2.7525713162
  C        -0.0296936934       -0.0296993921       -0.0296824847
  C         0.8985921513        0.8985976478        0.8985840241
  C        -0.0756843749        1.8029683399        1.8029672692
  C         2.7525602696        2.7525706604        0.8256496594
  C         1.8029628884       -0.0756749173        1.8029722228
  C         2.7525866912        0.8256350793        2.7525752658
  C         1.8029736153        1.8029657214       -0.0756980648
       8
 i =        2, E =       -44.9755213088
  C         0.8825359664        2.7537103924        2.7537120511
  C        -0.0878088020       -0.0878074807       -0.0878102054
  C         0.8617854261        0.8617850764        0.8617873427
  C        -0.0602354773        1.8095755757        1.8095803071
  C         2.7537138118        2.7537110903        0.8825342552
  C         1.8095782620       -0.0602380331        1.8095774210
  C         2.7537084504        0.8825367185        2.7537120521
  C         1.8095770820        1.8095779165       -0.0602334008
       8
 i =        3, E =       -44.9763558849
  C         0.8676654361        2.7470542318        2.7470551009
  C        -0.0730837558       -0.0730841334       -0.0730829327
  C         0.8705054299        0.8705053247        0.8705060641
  C        -0.0705609146        1.8069564009        1.8069568814
  C         2.7470543199        2.7470544346        0.8676657623
  C         1.8069564078       -0.0705616826        1.8069568725
  C         2.7470549272        0.8676650982        2.7470550745
  C         1.8069567681        1.8069564328       -0.0705606672
       8
 i =        4, E =       -44.9764293029
  C         0.8637591191        2.7447901447        2.7447905872
  C        -0.0753903900       -0.0753903731       -0.0753902526
  C         0.8664297065        0.8664295082        0.8664302451
  C        -0.0744990226        1.8049163532        1.8049167859
  C         2.7447904346        2.7447902409        0.8637592180
  C         1.8049165876       -0.0744994387        1.8049166657
  C         2.7447903694        0.8637589738        2.7447906848
  C         1.8049165057        1.8049164801       -0.0744986378
       8
 i =        5, E =       -44.9764560859
  C         0.8616365219        2.7417500107        2.7417499940
  C        -0.0783848527       -0.0783851394       -0.0783846428
  C         0.8618740174        0.8618740874        0.8618738835
  C        -0.0780822081        1.8020990226        1.8020988823
  C         2.7417497567        2.7417500473        0.8616367345
  C         1.8020987815       -0.0780820032        1.8020990943
  C         2.7417502790        0.8616363750        2.7417500067
  C         1.8020991545        1.8020989127       -0.0780823309
       8
 i =        6, E =       -44.9764568224
  C         0.8615645690        2.7416266818        2.7416266994
  C        -0.0784443109       -0.0784441217       -0.0784444499
  C         0.8616610113        0.8616609096        0.8616611058
  C        -0.0783274024        1.8017080837        1.8017082498
  C         2.7416268581        2.7416266270        0.8615644566
  C         1.8017082646       -0.0783275020        1.8017081200
  C         2.7416264957        0.8615646738        2.7416266913
  C         1.8017080703        1.8017081766       -0.0783272923
       8
 i =        7, E =       -44.9764568219
  C         0.8615645690        2.7416266818        2.7416266994
  C        -0.0784443109       -0.0784441217       -0.0784444499
  C         0.8616610113        0.8616609096        0.8616611058
  C        -0.0783274024        1.8017080837        1.8017082498
  C         2.7416268581        2.7416266270        0.8615644566
  C         1.8017082646       -0.0783275020        1.8017081200
  C         2.7416264957        0.8615646738        2.7416266913
  C         1.8017080703        1.8017081766       -0.0783272923
