       8
 i =        1, E =       -44.9251681004
  C         0.8930047754        2.6569926806        2.6569980271
  C         0.0268839101        0.0268795844        0.0268821446
  C         0.9026615337        0.9026612881        0.9026660750
  C         0.0182403969        1.7784811847        1.7784691233
  C         2.6569913565        2.6570021003        0.8930028657
  C         1.7784764801        0.0182456859        1.7784822331
  C         2.6570054567        0.8930071102        2.6569963787
  C         1.7784764471        1.7784705655        0.0182435222
       8
 i =        2, E =       -44.9253869200
  C         0.8906745921        2.6512088107        2.6512117782
  C         0.0245288522        0.0245239050        0.0245275892
  C         0.9021530362        0.9021506630        0.9021558071
  C         0.0138168397        1.7735676163        1.7735568746
  C         2.6512049583        2.6512152592        0.8906716573
  C         1.7735647798        0.0138217410        1.7735698181
  C         2.6512196942        0.8906769061        2.6512130296
  C         1.7735617940        1.7735581318        0.0138180812
       8
 i =        3, E =       -44.9256490819
  C         0.8763872310        2.6323189798        2.6323132152
  C         0.0130772477        0.0130711135        0.0130788548
  C         0.8934682454        0.8934614022        0.8934682503
  C        -0.0045970144        1.7565282056        1.7565225600
  C         2.6323088198        2.6323145814        0.8763832174
  C         1.7565326096       -0.0045934977        1.7565327672
  C         2.6323237319        0.8763902508        2.6323233430
  C         1.7565197187        1.7565232161       -0.0046006876
       8
 i =        4, E =       -44.9258243505
  C         0.8789436340        2.6364078386        2.6364054177
  C         0.0119826724        0.0119782563        0.0119831140
  C         0.8908397725        0.8908356135        0.8908405655
  C        -0.0002700720        1.7596370710        1.7596323608
  C         2.6364024768        2.6364070164        0.8789410650
  C         1.7596390557       -0.0002677720        1.7596398874
  C         2.6364122702        0.8789453859        2.6364109372
  C         1.7596318663        1.7596328877       -0.0002712500
       8
 i =        5, E =       -44.9259709799
  C         0.8756063951        2.6322925789        2.6322924785
  C         0.0000134198        0.0000128556        0.0000136432
  C         0.8770938810        0.8770934409        0.8770942794
  C        -0.0017936380        1.7545076166        1.7545087468
  C         2.6322936382        2.6322921124        0.8756066055
  C         1.7545084405       -0.0017948922        1.7545076798
  C         2.6322919975        0.8756055531        2.6322926318
  C         1.7545083050        1.7545082399       -0.0017931186
       8
 i =        6, E =       -44.9259761311
  C         0.8766653689        2.6327099409        2.6327097902
  C         0.0010430167        0.0010425665        0.0010431893
  C         0.8784294575        0.8784291416        0.8784297050
  C        -0.0007703643        1.7551635970        1.7551636952
  C         2.6327098820        2.6327095977        0.8766652493
  C         1.7551641139       -0.0007704115        1.7551638762
  C         2.6327101994        0.8766652874        2.6327102767
  C         1.7551634387        1.7551634320       -0.0007704146
       8
 i =        7, E =       -44.9259774829
  C         0.8772680184        2.6325045072        2.6325044629
  C         0.0002032348        0.0002032587        0.0002032782
  C         0.8777001574        0.8777001965        0.8777001773
  C        -0.0001426032        1.7550030545        1.7550030511
  C         2.6325044304        2.6325044006        0.8772679903
  C         1.7550031254       -0.0001424717        1.7550030771
  C         2.6325045393        0.8772680859        2.6325045418
  C         1.7550029807        1.7550030168       -0.0001427013
       8
 i =        8, E =       -44.9259774825
  C         0.8772680184        2.6325045072        2.6325044629
  C         0.0002032348        0.0002032587        0.0002032782
  C         0.8777001574        0.8777001965        0.8777001773
  C        -0.0001426032        1.7550030545        1.7550030511
  C         2.6325044304        2.6325044006        0.8772679903
  C         1.7550031254       -0.0001424717        1.7550030771
  C         2.6325045393        0.8772680859        2.6325045418
  C         1.7550029807        1.7550030168       -0.0001427013
