#     Step Nr.          Time[fs]        Kin.[a.u.]          Temp[K]            Pot.[a.u.]        Cons Qty[a.u.]        UsedTime[s]
         0            0.000000         0.003800178       200.000000000       -34.447892042       -34.444091863         0.000000000
         1            0.500000         0.003818264       200.951814950       -34.447987930       -34.444091408       194.434758378
         2            1.000000         0.003685924       193.986895240       -34.447994448       -34.444088690        42.344858118
         3            1.500000         0.003366537       177.177843618       -34.447958857       -34.444086925        41.907598689
         4            2.000000         0.003216401       169.276321218       -34.447920744       -34.444086763        41.612969741
         5            2.500000         0.003235544       170.283791201       -34.447888577       -34.444088590        42.256112756
         6            3.000000         0.003431929       180.619342729       -34.447839243       -34.444090288        41.667579518
         7            3.500000         0.002946512       155.072318639       -34.447747369       -34.444091141        48.678563231
         8            4.000000         0.002641202       139.004107102       -34.447618742       -34.444090491        41.851906943
         9            4.500000         0.002576740       135.611525687       -34.447455537       -34.444089187        41.980589567
        10            5.000000         0.002491310       131.115406703       -34.447294095       -34.444088444        41.703953985
        11            5.500000         0.002425097       127.630717378       -34.447145523       -34.444087381        41.454514421
        12            6.000000         0.002217267       116.692799064       -34.447021765       -34.444086589        41.439950423
        13            6.500000         0.002448476       128.861122235       -34.446943669       -34.444085785        41.624755866
        14            7.000000         0.002680154       141.054098082       -34.446903849       -34.444085599        41.752233818
        15            7.500000         0.002652692       139.608816323       -34.446903442       -34.444085921        41.771803389
        16            8.000000         0.002850489       150.018708559       -34.446934837       -34.444086942        42.159049560
        17            8.500000         0.002754323       144.957567320       -34.446978376       -34.444088206        41.442672581
        18            9.000000         0.002744247       144.427264995       -34.447031781       -34.444088172        41.950777675
        19            9.500000         0.002789716       146.820273250       -34.447104991       -34.444087974        42.061869369
        20           10.000000         0.002926017       153.993665554       -34.447198739       -34.444087946        41.867715355
        21           10.500000         0.003079355       162.063719710       -34.447307997       -34.444089370        41.553161438
        22           11.000000         0.003371323       177.429712807       -34.447411809       -34.444091392        41.874303615
        23           11.500000         0.003169616       166.814067754       -34.447475551       -34.444093210        41.497875777
        24           12.000000         0.003294592       173.391432471       -34.447480526       -34.444093219        42.048182813
        25           12.500000         0.003255511       171.334621971       -34.447429519       -34.444092057        42.024693200
        26           13.000000         0.003235682       170.291032806       -34.447338553       -34.444089819        41.737470546
        27           13.500000         0.002964356       156.011435189       -34.447254502       -34.444088684        41.612669109
        28           14.000000         0.002933563       154.390807011       -34.447195101       -34.444088477        41.626221915
        29           14.500000         0.002540851       133.722740009       -34.447167303       -34.444089705        41.625804488
        30           15.000000         0.002453627       129.132187431       -34.447168554       -34.444091270        41.600140229
        31           15.500000         0.002548559       134.128379676       -34.447176285       -34.444093347        42.189833449
        32           16.000000         0.002557179       134.582040710       -34.447164145       -34.444094652        41.911021857
        33           16.500000         0.002683745       141.243120165       -34.447102910       -34.444095255        42.028614533
        34           17.000000         0.002846995       149.834790310       -34.446964601       -34.444093160        41.759413684
        35           17.500000         0.002683976       141.255259300       -34.446777467       -34.444088748        43.962203673
        36           18.000000         0.002749807       144.719897126       -34.446595151       -34.444082565        42.012213940
        37           18.500000         0.002557375       134.592346332       -34.446523277       -34.444079086        48.462759990
        38           19.000000         0.002883051       151.732424747       -34.446618115       -34.444080762        41.656418712
        39           19.500000         0.002730591       143.708569142       -34.446853771       -34.444087893        41.570390057
        40           20.000000         0.003047896       160.408033446       -34.447120072       -34.444095895        41.525549875
        41           20.500000         0.003331405       175.328872111       -34.447314105       -34.444101213        42.168539571
        42           21.000000         0.003422008       180.097222608       -34.447340463       -34.444101528        49.381189243
        43           21.500000         0.003389044       178.362388771       -34.447189771       -34.444096267        41.787337470
        44           22.000000         0.003156362       166.116528639       -34.446928868       -34.444088750        42.082326559
        45           22.500000         0.003042367       160.117070610       -34.446672013       -34.444082837        41.628656830
        46           23.000000         0.002914082       153.365546646       -34.446520986       -34.444080043        41.959661678
        47           23.500000         0.002985945       157.147623841       -34.446518294       -34.444081596        41.625065873
        48           24.000000         0.003013738       158.610323811       -34.446638436       -34.444087231        41.679233008
        49           24.500000         0.003301378       173.748557921       -34.446796314       -34.444094255        41.987612282
        50           25.000000         0.003331528       175.335358360       -34.446883240       -34.444100476        41.508963240
        51           25.500000         0.003030090       159.470945290       -34.446800267       -34.444102554        41.954651455
        52           26.000000         0.002882084       151.681487221       -34.446521355       -34.444098961        42.056272386
        53           26.500000         0.002707323       142.484012709       -34.446102013       -34.444089443        41.640150351
        54           27.000000         0.002124611       111.816388341       -34.445716061       -34.444079207        41.934178271
        55           27.500000         0.001761497        92.706005327       -34.445504220       -34.444073673        41.680696773
        56           28.000000         0.001967252       103.534729910       -34.445562918       -34.444076850        48.579971784
        57           28.500000         0.002056995       108.257804476       -34.445846513       -34.444086622        42.011520969
        58           29.000000         0.002418805       127.299565831       -34.446204177       -34.444097473        41.651881884
        59           29.500000         0.002709133       142.579253131       -34.446465525       -34.444103952        34.984921004
        60           30.000000         0.002353336       123.853988880       -34.446538996       -34.444103554        41.396873550
        61           30.500000         0.002246948       118.254888399       -34.446461650       -34.444098728        41.805749293
        62           31.000000         0.002104879       110.777907372       -34.446314828       -34.444092757        41.652013415
        63           31.500000         0.002250343       118.433526415       -34.446179110       -34.444087030        41.802175184
        64           32.000000         0.002550174       134.213368774       -34.446132654       -34.444084466        41.660084401
        65           32.500000         0.002795925       147.147041697       -34.446217971       -34.444085556        42.004920373
        66           33.000000         0.002701860       142.196466775       -34.446414610       -34.444090814        41.876024577
        67           33.500000         0.003056878       160.880746692       -34.446640251       -34.444097956        41.670197870
        68           34.000000         0.003123445       164.384120579       -34.446784382       -34.444105039        41.449573557
        69           34.500000         0.003409699       179.449398498       -34.446745166       -34.444108224        42.254612859
        70           35.000000         0.003119919       164.198528258       -34.446445532       -34.444104668        41.928511019
        71           35.500000         0.002817752       148.295782293       -34.445938413       -34.444093369        41.857194288
        72           36.000000         0.002648995       139.414230392       -34.445372119       -34.444079416        41.914734088
        73           36.500000         0.002008748       105.718605649       -34.444976051       -34.444070324        41.630276720
        74           37.000000         0.001792430        94.333986198       -34.444903550       -34.444072549        41.617281244
        75           37.500000         0.002108481       110.967451523       -34.445117784       -34.444083539        41.707869006
        76           38.000000         0.002312320       121.695364072       -34.445462598       -34.444097430        41.976805487
        77           38.500000         0.002594108       136.525605841       -34.445708099       -34.444105216        41.849856489
        78           39.000000         0.002692500       141.703854123       -34.445742817       -34.444104505        35.063935778
        79           39.500000         0.002625409       138.172915222       -34.445561361       -34.444097241        41.718988490
        80           40.000000         0.002197330       115.643530190       -34.445267817       -34.444086294        43.052902814
        81           40.500000         0.002093981       110.204377274       -34.445041026       -34.444077527        54.570217338
        82           41.000000         0.002263739       119.138584644       -34.445006578       -34.444074241        64.540961631
        83           41.500000         0.002572738       135.400894577       -34.445225689       -34.444077273       108.558602691
        84           42.000000         0.003130059       164.732230459       -34.445647090       -34.444086488        77.416149769
        85           42.500000         0.003751732       197.450316780       -34.446130352       -34.444099491        62.190849620
        86           43.000000         0.004223133       222.259742946       -34.446458485       -34.444110276        64.790663526
        87           43.500000         0.004263658       224.392535323       -34.446460877       -34.444113351        69.772733402
        88           44.000000         0.003804232       200.213350383       -34.446078902       -34.444105487        66.565178952
        89           44.500000         0.003237450       170.384104123       -34.445468165       -34.444090418        60.031048004
        90           45.000000         0.002861343       150.589933969       -34.444830035       -34.444074727        85.884346722
        91           45.500000         0.002189660       115.239856464       -34.444415792       -34.444067988        87.880188809
        92           46.000000         0.002029647       106.818518335       -34.444346703       -34.444073429        50.654227298
        93           46.500000         0.002312221       121.690102946       -34.444532213       -34.444086887        60.574474254
        94           47.000000         0.002413506       127.020646732       -34.444763588       -34.444098763        90.100580807
        95           47.500000         0.002439197       128.372761431       -34.444873226       -34.444103866        46.307193225
        96           48.000000         0.002363492       124.388478712       -34.444785293       -34.444101214        70.451911310
        97           48.500000         0.002045756       107.666305606       -34.444547757       -34.444092866        66.967929088
        98           49.000000         0.001743279        91.747229428       -34.444290590       -34.444083291        57.144294903
        99           49.500000         0.001666439        87.703177015       -34.444153954       -34.444076410        57.502450094
       100           50.000000         0.001974533       103.917929822       -34.444253566       -34.444074368        78.293160584
       101           50.500000         0.002639382       138.908303536       -34.444638704       -34.444078591        64.535728834
       102           51.000000         0.003856928       202.986704450       -34.445239087       -34.444089042        71.509101266
       103           51.500000         0.004500866       236.876571057       -34.445885998       -34.444101681        82.563986991
       104           52.000000         0.004997722       263.025659650       -34.446332524       -34.444111199        66.490856494
       105           52.500000         0.005343583       281.228026960       -34.446433382       -34.444112900        52.300977876
       106           53.000000         0.004979197       262.050712951       -34.446155740       -34.444103437        53.986258273
       107           53.500000         0.004515566       237.650220495       -34.445642278       -34.444086997        76.135262277
       108           54.000000         0.003762618       198.023239619       -34.445182301       -34.444074138        81.349273262
       109           54.500000         0.003487198       183.528116979       -34.444970482       -34.444071979        44.644246625
       110           55.000000         0.003623301       190.691098699       -34.445024588       -34.444081224        54.104322181
       111           55.500000         0.003619050       190.467351622       -34.445207585       -34.444094093        59.251171651
       112           56.000000         0.003694315       194.428515511       -34.445342610       -34.444103597        76.648453352
       113           56.500000         0.003538451       186.225500338       -34.445275139       -34.444104705       122.324430212
       114           57.000000         0.003008408       158.329848655       -34.445004845       -34.444098511        60.996249213
       115           57.500000         0.002399553       126.286341140       -34.444645127       -34.444089095        69.345902446
       116           58.000000         0.001966122       103.475227262       -34.444386495       -34.444081518        65.743358928
