 DBCSR| Multiplication driver                                               BLAS
 DBCSR| Multrec recursion limit                                              512
 DBCSR| Multiplication stack size                                           1000
 DBCSR| Maximum elements for images                                    UNLIMITED
 DBCSR| Multiplicative factor virtual images                                   1
 DBCSR| Multiplication size stacks                                             3


  **** **** ******  **  PROGRAM STARTED AT               2020-05-18 23:41:59.768
 ***** ** ***  *** **   PROGRAM STARTED ON                                 sheep
 **    ****   ******    PROGRAM STARTED BY                                 sim03
 ***** **    ** ** **   PROGRAM PROCESS ID                               3454301
  **** **  *******  **  PROGRAM STARTED IN /auto.eland/home/sim03/Documents/SimP
                                           hys/Summer/2/cp2k/DIMER_MD_TEST_200K

 CP2K| version string:                                          CP2K version 5.1
 CP2K| source code revision number:                                    svn:18091
 CP2K| cp2kflags: fftw3 max_contr=4                                             
 CP2K| is freely available from                            https://www.cp2k.org/
 CP2K| Program compiled at                         Thu May  9 16:52:28 CEST 2019
 CP2K| Program compiled on                                                  cip0
 CP2K| Program compiled for                                                 icp2
 CP2K| Data directory path          /auto.eland/group/allatom/cp2k/cp2k-5.1/data
 CP2K| Input file name                                        water_dimer_md.inp

 GLOBAL| Force Environment number                                              1
 GLOBAL| Basis set file name                                      ./BASIS_MOLOPT
 GLOBAL| Potential file name                                    ./GTH_POTENTIALS
 GLOBAL| MM Potential file name                                     MM_POTENTIAL
 GLOBAL| Coordinate file name                                    water-dimer.xyz
 GLOBAL| Method name                                                        CP2K
 GLOBAL| Project name                                             water_dimer_md
 GLOBAL| Preferred FFT library                                             FFTW3
 GLOBAL| Preferred diagonalization lib.                                       SL
 GLOBAL| Run type                                                             MD
 GLOBAL| All-to-all communication in single precision                          F
 GLOBAL| FFTs using library dependent lengths                                  F
 GLOBAL| Global print level                                                  LOW
 GLOBAL| Total number of message passing processes                             1
 GLOBAL| Number of threads for this process                                    1
 GLOBAL| This output is from process                                           0
 GLOBAL| CPU model name :  Intel(R) Core(TM) i7-3930K CPU @ 3.20GHz

 MEMORY| system memory details [Kb]
 MEMORY|                        rank 0           min           max       average
 MEMORY| MemTotal              8112104       8112104       8112104       8112104
 MEMORY| MemFree               3414864       3414864       3414864       3414864
 MEMORY| Buffers                 85628         85628         85628         85628
 MEMORY| Cached                2186532       2186532       2186532       2186532
 MEMORY| Slab                   336480        336480        336480        336480
 MEMORY| SReclaimable           251808        251808        251808        251808
 MEMORY| MemLikelyFree         5938832       5938832       5938832       5938832


 GENERATE|  Preliminary Number of Bonds generated:                             0
 GENERATE|  Achieved consistency in connectivity generation.

 *******************************************************************************
 *******************************************************************************
 **                                                                           **
 **     #####                         ##              ##                      **
 **    ##   ##            ##          ##              ##                      **
 **   ##     ##                       ##            ######                    **
 **   ##     ##  ##   ##  ##   #####  ##  ##   ####   ##    #####    #####    **
 **   ##     ##  ##   ##  ##  ##      ## ##   ##      ##   ##   ##  ##   ##   **
 **   ##  ## ##  ##   ##  ##  ##      ####     ###    ##   ######   ######    **
 **    ##  ###   ##   ##  ##  ##      ## ##      ##   ##   ##       ##        **
 **     #######   #####   ##   #####  ##  ##  ####    ##    #####   ##        **
 **           ##                                                    ##        **
 **                                                                           **
 **                                                ... make the atoms dance   **
 **                                                                           **
 **            Copyright (C) by CP2K developers group (2000 - 2017)           **
 **                                                                           **
 *******************************************************************************


 SCF PARAMETERS         Density guess:                                    ATOMIC
                        --------------------------------------------------------
                        max_scf:                                              50
                        max_scf_history:                                       0
                        max_diis:                                              4
                        --------------------------------------------------------
                        eps_scf:                                        1.00E-06
                        eps_scf_history:                                0.00E+00
                        eps_diis:                                       1.00E-01
                        eps_eigval:                                     1.00E-05
                        --------------------------------------------------------
                        level_shift [a.u.]:                                 0.00
                        --------------------------------------------------------
                        Outer loop SCF in use 
                        No variables optimised in outer loop
                        eps_scf                                         1.00E-06
                        max_scf                                               50
                        No outer loop optimization
                        step_size                                       5.00E-01

 MD| Molecular Dynamics Protocol 
 MD| Ensemble Type                                                           NVT
 MD| Number of Time Steps                                                   2000
 MD| Time Step [fs]                                                         0.50
 MD| Temperature [K]                                                      200.00
 MD| Temperature tolerance [K]                                              0.00
 MD| Print MD information every                                        1 step(s)
 MD| File type     Print frequency[steps]                             File names
 MD| Coordinates            1                           water_dimer_md-pos-1.xyz
 MD| Velocities             1                           water_dimer_md-vel-1.xyz
 MD| Energies               1                              water_dimer_md-1.ener
 MD| Dump                  20                           water_dimer_md-1.restart

 ROT| Rotational Analysis Info 
 ROT| Principal axes and moments of inertia in atomic units:
 ROT|                                1                 2                 3
 ROT| EIGENVALUES            0.156487566E+05   0.520642743E+06   0.520764209E+06
 ROT|      X                     0.999210353      -0.028633601       0.027546084
 ROT|      Y                    -0.002853408      -0.743212415      -0.669049448
 ROT|      Z                     0.039629887       0.668442535      -0.742707244
 ROT| Numer of Rotovibrational vectors:     6

 Calculation of degrees of freedom
                                                      Number of atoms:         6
                                 Number of Intramolecular constraints:         0
                                 Number of Intermolecular constraints:         0
                                  Invariants(translation + rotations):         6
                                                   Degrees of freedom:        12


 Restraints Information
                                  Number of Intramolecular restraints:         0
                                  Number of Intermolecular restraints:         0

 THERMOSTAT| Thermostat Info for PARTICLES
 THERMOSTAT| Type of thermostat            Canonical Sampling/Velocity Rescaling
 THERMOSTAT| CSVR time constant [  fs]                                     50.00
 THERMOSTAT| Initial Kinetic Energy                                     0.000000
 THERMOSTAT| End of Thermostat Info for PARTICLES

 ************************** Velocities initialization **************************
 Initial Temperature                                                    200.00 K
 COM velocity:           -0.000000000000     -0.000000000000      0.000000000000
 COM position:           14.331694840386     14.161896398666     13.839209664972
 Angular velocity:        0.000000000000     -0.000000000000     -0.000000000000
 *******************************************************************************


 Number of electrons:                                                         16
 Number of occupied orbitals:                                                  8
 Number of molecular orbitals:                                                 8

 Number of orbital functions:                                                 46
 Number of independent orbital functions:                                     46

 Extrapolation method: initial_guess


 SCF WAVEFUNCTION OPTIMIZATION

  ----------------------------------- OT ---------------------------------------
  Minimizer      : DIIS                : direct inversion
                                         in the iterative subspace
                                         using   7 DIIS vectors
                                         safer DIIS on
  Preconditioner : FULL_ALL            : diagonalization, state selective
  Precond_solver : DEFAULT
  stepsize       :    0.15000000                  energy_gap     :    0.08000000
  eps_taylor     :   0.10000E-15                  max_taylor     :             4
  ----------------------------------- OT ---------------------------------------

  Step     Update method      Time    Convergence         Total energy    Change
  ------------------------------------------------------------------------------
     1 OT DIIS     0.15E+00    6.8     0.28765090       -32.6428713339 -3.26E+01
     2 OT DIIS     0.15E+00    5.6     0.20330479       -33.1064055612 -4.64E-01
     3 OT DIIS     0.15E+00    5.6     0.12485656       -34.2161262384 -1.11E+00
     4 OT DIIS     0.15E+00    5.6     0.05056557       -34.4037723111 -1.88E-01
     5 OT DIIS     0.15E+00    5.6     0.04993112       -34.4268803688 -2.31E-02
     6 OT DIIS     0.15E+00    5.6     0.03281412       -34.4395301201 -1.26E-02
     7 OT DIIS     0.15E+00    5.9     0.00930861       -34.4467688678 -7.24E-03
     8 OT DIIS     0.15E+00    5.8     0.00505819       -34.4475790129 -8.10E-04
     9 OT DIIS     0.15E+00    5.8     0.00205437       -34.4478298684 -2.51E-04
    10 OT DIIS     0.15E+00    5.8     0.00067582       -34.4478830684 -5.32E-05
    11 OT DIIS     0.15E+00    5.8     0.00035272       -34.4478894503 -6.38E-06
    12 OT DIIS     0.15E+00    5.8     0.00017550       -34.4478912681 -1.82E-06
    13 OT DIIS     0.15E+00    5.7     0.00011527       -34.4478918286 -5.60E-07
    14 OT DIIS     0.15E+00    5.8     0.00007454       -34.4478919583 -1.30E-07
    15 OT DIIS     0.15E+00    6.0     0.00002645       -34.4478920270 -6.86E-08
    16 OT DIIS     0.15E+00    6.0     0.00001952       -34.4478920364 -9.40E-09
    17 OT DIIS     0.15E+00    6.0     0.00001213       -34.4478920396 -3.27E-09
    18 OT DIIS     0.15E+00    6.0     0.00000854       -34.4478920408 -1.12E-09
    19 OT DIIS     0.15E+00    6.1     0.00000290       -34.4478920414 -6.89E-10
    20 OT DIIS     0.15E+00    6.5     0.00000194       -34.4478920416 -1.26E-10
    21 OT DIIS     0.15E+00    6.4     0.00000102       -34.4478920416 -5.19E-11
    22 OT DIIS     0.15E+00    6.5     0.00000079       -34.4478920416 -1.37E-11

  *** SCF run converged in    22 steps ***


  Electronic density on regular grids:        -15.9999998644        0.0000001356
  Core density on regular grids:               15.9999999995       -0.0000000005
  Total charge density on r-space grids:        0.0000001351
  Total charge density g-space grids:           0.0000001351

  Overlap energy of the core charge distribution:               0.00000011467697
  Self energy of the core charge distribution:                -88.69430999347530
  Core Hamiltonian energy:                                     25.83840545202619
  Hartree energy:                                              36.87664754674594
  Exchange-correlation energy:                                 -8.46792359880912
  Dispersion energy:                                           -0.00071156280609

  Total energy:                                               -34.44789204164142

  outer SCF iter =    1 RMS gradient =   0.79E-06 energy =        -34.4478920416
  outer SCF loop converged in   1 iterations or   22 steps


 MOMENTS
  The electric/magnetic moments are written to file:
  water_dimer_dipole.out


 ENERGY| Total FORCE_EVAL ( QS ) energy (a.u.):              -34.447892041644742


 MD_ENERGIES| Initialization proceeding


 ******************************** GO CP2K GO! **********************************
 INITIAL POTENTIAL ENERGY[hartree]     =                     -0.344478920416E+02
 INITIAL KINETIC ENERGY[hartree]       =                      0.380017841194E-02
 INITIAL TEMPERATURE[K]                =                                 200.000
 INITIAL VOLUME[bohr^3]                =                      0.227756292179E+05
 INITIAL CELL LNTHS[bohr]   =      0.2834589E+02   0.2834589E+02   0.2834589E+02
 INITIAL CELL ANGLS[deg]    =      0.9000000E+02   0.9000000E+02   0.9000000E+02
 ******************************** GO CP2K GO! **********************************

 Number of electrons:                                                         16
 Number of occupied orbitals:                                                  8
 Number of molecular orbitals:                                                 8

 Number of orbital functions:                                                 46
 Number of independent orbital functions:                                     46

 Extrapolation method: ASPC


 SCF WAVEFUNCTION OPTIMIZATION

  ----------------------------------- OT ---------------------------------------
  Minimizer      : DIIS                : direct inversion
                                         in the iterative subspace
                                         using   7 DIIS vectors
                                         safer DIIS on
  Preconditioner : FULL_ALL            : diagonalization, state selective
  Precond_solver : DEFAULT
  stepsize       :    0.15000000                  energy_gap     :    0.08000000
  eps_taylor     :   0.10000E-15                  max_taylor     :             4
  ----------------------------------- OT ---------------------------------------

  Step     Update method      Time    Convergence         Total energy    Change
  ------------------------------------------------------------------------------
     1 OT DIIS     0.15E+00    6.2     0.00128074       -34.4479143056 -3.44E+01
     2 OT DIIS     0.15E+00    7.0     0.00050735       -34.4479764232 -6.21E-05
     3 OT DIIS     0.15E+00    6.9     0.00016778       -34.4479874242 -1.10E-05
     4 OT DIIS     0.15E+00    6.9     0.00001801       -34.4479879218 -4.98E-07
     5 OT DIIS     0.15E+00    7.0     0.00000451       -34.4479879293 -7.52E-09
     6 OT DIIS     0.15E+00    7.0     0.00000240       -34.4479879298 -5.17E-10
     7 OT DIIS     0.15E+00    6.8     0.00000013       -34.4479879299 -1.24E-10

  *** SCF run converged in     7 steps ***


  Electronic density on regular grids:        -15.9999998661        0.0000001339
  Core density on regular grids:               15.9999999995       -0.0000000005
  Total charge density on r-space grids:        0.0000001334
  Total charge density g-space grids:           0.0000001334

  Overlap energy of the core charge distribution:               0.00000011265923
  Self energy of the core charge distribution:                -88.69430999347530
  Core Hamiltonian energy:                                     25.83148364909913
  Hartree energy:                                              36.88171653192818
  Exchange-correlation energy:                                 -8.46616885269842
  Dispersion energy:                                           -0.00070937744006

  Total energy:                                               -34.44798792992724

  outer SCF iter =    1 RMS gradient =   0.13E-06 energy =        -34.4479879299
  outer SCF loop converged in   1 iterations or    7 steps


 MOMENTS
  The electric/magnetic moments are written to file:
  water_dimer_dipole.out


 ENERGY| Total FORCE_EVAL ( QS ) energy (a.u.):              -34.447987929926811


 *******************************************************************************
 ENSEMBLE TYPE                =                                              NVT
 STEP NUMBER                  =                                                1
 TIME [fs]                    =                                         0.500000
 CONSERVED QUANTITY [hartree] =                              -0.344440914078E+02

                                              INSTANTANEOUS             AVERAGES
 CPU TIME [s]                 =                      194.43               194.43
 ENERGY DRIFT PER ATOM [K]    =          0.239678412986E-01   0.000000000000E+00
 POTENTIAL ENERGY[hartree]    =         -0.344479879299E+02  -0.344479879299E+02
 KINETIC ENERGY [hartree]     =          0.381826374508E-02   0.381826374508E-02
 TEMPERATURE [K]              =                     200.952              200.952
 *******************************************************************************


 Number of electrons:                                                         16
 Number of occupied orbitals:                                                  8
 Number of molecular orbitals:                                                 8

 Number of orbital functions:                                                 46
 Number of independent orbital functions:                                     46

 Extrapolation method: ASPC


 SCF WAVEFUNCTION OPTIMIZATION

  ----------------------------------- OT ---------------------------------------
  Minimizer      : DIIS                : direct inversion
                                         in the iterative subspace
                                         using   7 DIIS vectors
                                         safer DIIS on
  Preconditioner : FULL_ALL            : diagonalization, state selective
  Precond_solver : DEFAULT
  stepsize       :    0.15000000                  energy_gap     :    0.08000000
  eps_taylor     :   0.10000E-15                  max_taylor     :             4
  ----------------------------------- OT ---------------------------------------

  Step     Update method      Time    Convergence         Total energy    Change
  ------------------------------------------------------------------------------
     1 OT DIIS     0.15E+00    6.3     0.00024151       -34.4479923217 -3.44E+01
     2 OT DIIS     0.15E+00    7.0     0.00011388       -34.4479940712 -1.75E-06
     3 OT DIIS     0.15E+00    6.9     0.00005471       -34.4479943624 -2.91E-07
     4 OT DIIS     0.15E+00    6.8     0.00000396       -34.4479944469 -8.45E-08
     5 OT DIIS     0.15E+00    6.9     0.00000076       -34.4479944476 -6.45E-10

  *** SCF run converged in     5 steps ***


  Electronic density on regular grids:        -15.9999998690        0.0000001310
  Core density on regular grids:               15.9999999995       -0.0000000005
  Total charge density on r-space grids:        0.0000001305
  Total charge density g-space grids:           0.0000001305

  Overlap energy of the core charge distribution:               0.00000010800889
  Self energy of the core charge distribution:                -88.69430999347530
  Core Hamiltonian energy:                                     25.81735633947155
  Hartree energy:                                              36.89203166246681
  Exchange-correlation energy:                                 -8.46236577588333
  Dispersion energy:                                           -0.00070678816990

  Total energy:                                               -34.44799444758127

  outer SCF iter =    1 RMS gradient =   0.76E-06 energy =        -34.4479944476
  outer SCF loop converged in   1 iterations or    5 steps


 MOMENTS
  The electric/magnetic moments are written to file:
  water_dimer_dipole.out


 ENERGY| Total FORCE_EVAL ( QS ) energy (a.u.):              -34.447994447604998


 Temperature scaled to requested temperature:    193.98 K  ->    193.99 K
 MD| Old VCOM =     0.0000003064   -0.0000002065    0.0000018720 a.u.
 MD| New VCOM =     0.0000000000    0.0000000000   -0.0000000000 a.u
 MD| Old VANG =    -0.0000000719    0.0000012426    0.0000001489 a.u.
 MD| New VANG =    -0.0000000000    0.0000000000   -0.0000000000 a.u

 *******************************************************************************
 ENSEMBLE TYPE                =                                              NVT
 STEP NUMBER                  =                                                2
 TIME [fs]                    =                                         1.000000
 CONSERVED QUANTITY [hartree] =                              -0.344440886897E+02

                                              INSTANTANEOUS             AVERAGES
 CPU TIME [s]                 =                       42.34               118.39
 ENERGY DRIFT PER ATOM [K]    =          0.167018236616E+00   0.835091183082E-01
 POTENTIAL ENERGY[hartree]    =         -0.344479944476E+02  -0.344479911888E+02
 KINETIC ENERGY [hartree]     =          0.368592405746E-02   0.375209390127E-02
 TEMPERATURE [K]              =                     193.987              197.469
 *******************************************************************************


 Number of electrons:                                                         16
 Number of occupied orbitals:                                                  8
 Number of molecular orbitals:                                                 8

 Number of orbital functions:                                                 46
 Number of independent orbital functions:                                     46

 Extrapolation method: ASPC


 SCF WAVEFUNCTION OPTIMIZATION

  ----------------------------------- OT ---------------------------------------
  Minimizer      : DIIS                : direct inversion
                                         in the iterative subspace
                                         using   7 DIIS vectors
                                         safer DIIS on
  Preconditioner : FULL_ALL            : diagonalization, state selective
  Precond_solver : DEFAULT
  stepsize       :    0.15000000                  energy_gap     :    0.08000000
  eps_taylor     :   0.10000E-15                  max_taylor     :             4
  ----------------------------------- OT ---------------------------------------

  Step     Update method      Time    Convergence         Total energy    Change
  ------------------------------------------------------------------------------
     1 OT DIIS     0.15E+00    6.1     0.00016088       -34.4479577610 -3.44E+01
     2 OT DIIS     0.15E+00    6.9     0.00006244       -34.4479586952 -9.34E-07
     3 OT DIIS     0.15E+00    7.0     0.00003101       -34.4479588365 -1.41E-07
     4 OT DIIS     0.15E+00    6.9     0.00000369       -34.4479588561 -1.96E-08
     5 OT DIIS     0.15E+00    6.9     0.00000092       -34.4479588565 -3.69E-10

  *** SCF run converged in     5 steps ***


  Electronic density on regular grids:        -15.9999998731        0.0000001269
  Core density on regular grids:               15.9999999995       -0.0000000005
  Total charge density on r-space grids:        0.0000001264
  Total charge density g-space grids:           0.0000001264

  Overlap energy of the core charge distribution:               0.00000010021196
  Self energy of the core charge distribution:                -88.69430999347530
  Core Hamiltonian energy:                                     25.79788328271984
  Hartree energy:                                              36.90621132935404
  Exchange-correlation energy:                                 -8.45703952019266
  Dispersion energy:                                           -0.00070405510887

  Total energy:                                               -34.44795885649098

  outer SCF iter =    1 RMS gradient =   0.92E-06 energy =        -34.4479588565
  outer SCF loop converged in   1 iterations or    5 steps


 MOMENTS
  The electric/magnetic moments are written to file:
  water_dimer_dipole.out


 ENERGY| Total FORCE_EVAL ( QS ) energy (a.u.):              -34.447958856521204


 *******************************************************************************
 ENSEMBLE TYPE                =                                              NVT
 STEP NUMBER                  =                                                3
 TIME [fs]                    =                                         1.500000
 CONSERVED QUANTITY [hartree] =                              -0.344440869253E+02

                                              INSTANTANEOUS             AVERAGES
 CPU TIME [s]                 =                       41.91                92.90
 ENERGY DRIFT PER ATOM [K]    =          0.259880350782E+00   0.142299529133E+00
 POTENTIAL ENERGY[hartree]    =         -0.344479588565E+02  -0.344479804114E+02
 KINETIC ENERGY [hartree]     =          0.336653708197E-02   0.362357496150E-02
 TEMPERATURE [K]              =                     177.178              190.706
 *******************************************************************************


 Number of electrons:                                                         16
 Number of occupied orbitals:                                                  8
 Number of molecular orbitals:                                                 8

 Number of orbital functions:                                                 46
 Number of independent orbital functions:                                     46

 Extrapolation method: ASPC


 SCF WAVEFUNCTION OPTIMIZATION

  ----------------------------------- OT ---------------------------------------
  Minimizer      : DIIS                : direct inversion
                                         in the iterative subspace
                                         using   7 DIIS vectors
                                         safer DIIS on
  Preconditioner : FULL_ALL            : diagonalization, state selective
  Precond_solver : DEFAULT
  stepsize       :    0.15000000                  energy_gap     :    0.08000000
  eps_taylor     :   0.10000E-15                  max_taylor     :             4
  ----------------------------------- OT ---------------------------------------

  Step     Update method      Time    Convergence         Total energy    Change
  ------------------------------------------------------------------------------
     1 OT DIIS     0.15E+00    5.9     0.00009649       -34.4479203528 -3.44E+01
     2 OT DIIS     0.15E+00    6.8     0.00003817       -34.4479206854 -3.33E-07
     3 OT DIIS     0.15E+00    6.9     0.00002030       -34.4479207351 -4.96E-08
     4 OT DIIS     0.15E+00    6.8     0.00000196       -34.4479207436 -8.56E-09
     5 OT DIIS     0.15E+00    6.8     0.00000054       -34.4479207438 -1.16E-10

  *** SCF run converged in     5 steps ***


  Electronic density on regular grids:        -15.9999998780        0.0000001220
  Core density on regular grids:               15.9999999995       -0.0000000005
  Total charge density on r-space grids:        0.0000001216
  Total charge density g-space grids:           0.0000001215

  Overlap energy of the core charge distribution:               0.00000008936110
  Self energy of the core charge distribution:                -88.69430999347530
  Core Hamiltonian energy:                                     25.77439702803902
  Hartree energy:                                              36.92326819444576
  Exchange-correlation energy:                                 -8.45057480875913
  Dispersion energy:                                           -0.00070125337483

  Total energy:                                               -34.44792074376337

  outer SCF iter =    1 RMS gradient =   0.54E-06 energy =        -34.4479207438
  outer SCF loop converged in   1 iterations or    5 steps


 MOMENTS
  The electric/magnetic moments are written to file:
  water_dimer_dipole.out


 ENERGY| Total FORCE_EVAL ( QS ) energy (a.u.):              -34.447920743771789


 Temperature scaled to requested temperature:    169.27 K  ->    169.28 K
 MD| Old VCOM =     0.0000006267   -0.0000002614    0.0000016775 a.u.
 MD| New VCOM =     0.0000000000    0.0000000000    0.0000000000 a.u
 MD| Old VANG =    -0.0000001461    0.0000011455    0.0000001633 a.u.
 MD| New VANG =    -0.0000000000    0.0000000000   -0.0000000000 a.u

 *******************************************************************************
 ENSEMBLE TYPE                =                                              NVT
 STEP NUMBER                  =                                                4
 TIME [fs]                    =                                         2.000000
 CONSERVED QUANTITY [hartree] =                              -0.344440867626E+02

                                              INSTANTANEOUS             AVERAGES
 CPU TIME [s]                 =                       41.61                80.08
 ENERGY DRIFT PER ATOM [K]    =          0.268443958382E+00   0.173835636445E+00
 POTENTIAL ENERGY[hartree]    =         -0.344479207438E+02  -0.344479654945E+02
 KINETIC ENERGY [hartree]     =          0.321640110772E-02   0.352178149806E-02
 TEMPERATURE [K]              =                     169.276              185.348
 *******************************************************************************


 Number of electrons:                                                         16
 Number of occupied orbitals:                                                  8
 Number of molecular orbitals:                                                 8

 Number of orbital functions:                                                 46
 Number of independent orbital functions:                                     46

 Extrapolation method: ASPC


 SCF WAVEFUNCTION OPTIMIZATION

  ----------------------------------- OT ---------------------------------------
  Minimizer      : DIIS                : direct inversion
                                         in the iterative subspace
                                         using   7 DIIS vectors
                                         safer DIIS on
  Preconditioner : FULL_ALL            : diagonalization, state selective
  Precond_solver : DEFAULT
  stepsize       :    0.15000000                  energy_gap     :    0.08000000
  eps_taylor     :   0.10000E-15                  max_taylor     :             4
  ----------------------------------- OT ---------------------------------------

  Step     Update method      Time    Convergence         Total energy    Change
  ------------------------------------------------------------------------------
     1 OT DIIS     0.15E+00    6.2     0.00011405       -34.4478880259 -3.44E+01
     2 OT DIIS     0.15E+00    6.9     0.00004712       -34.4478884898 -4.64E-07
     3 OT DIIS     0.15E+00    6.9     0.00002688       -34.4478885616 -7.17E-08
     4 OT DIIS     0.15E+00    7.0     0.00000207       -34.4478885767 -1.51E-08
     5 OT DIIS     0.15E+00    7.0     0.00000081       -34.4478885768 -1.13E-10

  *** SCF run converged in     5 steps ***


  Electronic density on regular grids:        -15.9999998833        0.0000001167
  Core density on regular grids:               15.9999999995       -0.0000000005
  Total charge density on r-space grids:        0.0000001162
  Total charge density g-space grids:           0.0000001162

  Overlap energy of the core charge distribution:               0.00000007734242
  Self energy of the core charge distribution:                -88.69430999347530
  Core Hamiltonian energy:                                     25.74998276036592
  Hartree energy:                                              36.94097427782593
  Exchange-correlation energy:                                 -8.44383708188624
  Dispersion energy:                                           -0.00069861693908

  Total energy:                                               -34.44788857676634

  outer SCF iter =    1 RMS gradient =   0.81E-06 energy =        -34.4478885768
  outer SCF loop converged in   1 iterations or    5 steps


 MOMENTS
  The electric/magnetic moments are written to file:
  water_dimer_dipole.out


 ENERGY| Total FORCE_EVAL ( QS ) energy (a.u.):              -34.447888576781509


 *******************************************************************************
 ENSEMBLE TYPE                =                                              NVT
 STEP NUMBER                  =                                                5
 TIME [fs]                    =                                         2.500000
 CONSERVED QUANTITY [hartree] =                              -0.344440885899E+02

                                              INSTANTANEOUS             AVERAGES
 CPU TIME [s]                 =                       42.26                72.51
 ENERGY DRIFT PER ATOM [K]    =          0.172274334065E+00   0.173523375969E+00
 POTENTIAL ENERGY[hartree]    =         -0.344478885768E+02  -0.344479501109E+02
 KINETIC ENERGY [hartree]     =          0.323554393613E-02   0.346453398567E-02
 TEMPERATURE [K]              =                     170.284              182.335
 *******************************************************************************


 Number of electrons:                                                         16
 Number of occupied orbitals:                                                  8
 Number of molecular orbitals:                                                 8

 Number of orbital functions:                                                 46
 Number of independent orbital functions:                                     46

 Extrapolation method: ASPC


 SCF WAVEFUNCTION OPTIMIZATION

  ----------------------------------- OT ---------------------------------------
  Minimizer      : DIIS                : direct inversion
                                         in the iterative subspace
                                         using   7 DIIS vectors
                                         safer DIIS on
  Preconditioner : FULL_ALL            : diagonalization, state selective
  Precond_solver : DEFAULT
  stepsize       :    0.15000000                  energy_gap     :    0.08000000
  eps_taylor     :   0.10000E-15                  max_taylor     :             4
  ----------------------------------- OT ---------------------------------------

  Step     Update method      Time    Convergence         Total energy    Change
  ------------------------------------------------------------------------------
     1 OT DIIS     0.15E+00    6.1     0.00008474       -34.4478389278 -3.44E+01
     2 OT DIIS     0.15E+00    6.8     0.00003253       -34.4478391965 -2.69E-07
     3 OT DIIS     0.15E+00    6.8     0.00001153       -34.4478392408 -4.43E-08
     4 OT DIIS     0.15E+00    7.0     0.00000198       -34.4478392431 -2.31E-09
     5 OT DIIS     0.15E+00    6.9     0.00000034       -34.4478392432 -8.79E-11

  *** SCF run converged in     5 steps ***


  Electronic density on regular grids:        -15.9999998890        0.0000001110
  Core density on regular grids:               15.9999999995       -0.0000000005
  Total charge density on r-space grids:        0.0000001105
  Total charge density g-space grids:           0.0000001105

  Overlap energy of the core charge distribution:               0.00000006557063
  Self energy of the core charge distribution:                -88.69430999347530
  Core Hamiltonian energy:                                     25.72589342410709
  Hartree energy:                                              36.95845828994585
  Exchange-correlation energy:                                 -8.43718489569210
  Dispersion energy:                                           -0.00069613360720

  Total energy:                                               -34.44783924315104

  outer SCF iter =    1 RMS gradient =   0.34E-06 energy =        -34.4478392432
  outer SCF loop converged in   1 iterations or    5 steps


 MOMENTS
  The electric/magnetic moments are written to file:
  water_dimer_dipole.out


 ENERGY| Total FORCE_EVAL ( QS ) energy (a.u.):              -34.447839243154171


 Temperature scaled to requested temperature:    180.61 K  ->    180.62 K
 MD| Old VCOM =     0.0000008668   -0.0000003064    0.0000016036 a.u.
 MD| New VCOM =     0.0000000000    0.0000000000    0.0000000000 a.u
 MD| Old VANG =    -0.0000002079    0.0000011111    0.0000001837 a.u.
 MD| New VANG =     0.0000000000   -0.0000000000   -0.0000000000 a.u

 *******************************************************************************
 ENSEMBLE TYPE                =                                              NVT
 STEP NUMBER                  =                                                6
 TIME [fs]                    =                                         3.000000
 CONSERVED QUANTITY [hartree] =                              -0.344440902879E+02

                                              INSTANTANEOUS             AVERAGES
 CPU TIME [s]                 =                       41.67                67.37
 ENERGY DRIFT PER ATOM [K]    =          0.829105078009E-01   0.158421231274E+00
 POTENTIAL ENERGY[hartree]    =         -0.344478392432E+02  -0.344479316330E+02
 KINETIC ENERGY [hartree]     =          0.343192863509E-02   0.345909976058E-02
 TEMPERATURE [K]              =                     180.619              182.049
 *******************************************************************************


 Number of electrons:                                                         16
 Number of occupied orbitals:                                                  8
 Number of molecular orbitals:                                                 8

 Number of orbital functions:                                                 46
 Number of independent orbital functions:                                     46

 Extrapolation method: ASPC


 SCF WAVEFUNCTION OPTIMIZATION

  ----------------------------------- OT ---------------------------------------
  Minimizer      : DIIS                : direct inversion
                                         in the iterative subspace
                                         using   7 DIIS vectors
                                         safer DIIS on
  Preconditioner : FULL_ALL            : diagonalization, state selective
  Precond_solver : DEFAULT
  stepsize       :    0.15000000                  energy_gap     :    0.08000000
  eps_taylor     :   0.10000E-15                  max_taylor     :             4
  ----------------------------------- OT ---------------------------------------

  Step     Update method      Time    Convergence         Total energy    Change
  ------------------------------------------------------------------------------
     1 OT DIIS     0.15E+00    6.0     0.00013420       -34.4477466971 -3.44E+01
     2 OT DIIS     0.15E+00    6.8     0.00006729       -34.4477472385 -5.41E-07
     3 OT DIIS     0.15E+00    6.9     0.00003246       -34.4477473385 -1.00E-07
     4 OT DIIS     0.15E+00    6.9     0.00000179       -34.4477473692 -3.07E-08
     5 OT DIIS     0.15E+00    6.9     0.00000103       -34.4477473693 -9.21E-11
     6 OT DIIS     0.15E+00    6.9     0.00000021       -34.4477473693 -1.74E-11

  *** SCF run converged in     6 steps ***


  Electronic density on regular grids:        -15.9999998947        0.0000001053
  Core density on regular grids:               15.9999999995       -0.0000000005
  Total charge density on r-space grids:        0.0000001048
  Total charge density g-space grids:           0.0000001048

  Overlap energy of the core charge distribution:               0.00000005630095
  Self energy of the core charge distribution:                -88.69430999347530
  Core Hamiltonian energy:                                     25.70591695070706
  Hartree energy:                                              36.97300817899303
  Exchange-correlation energy:                                 -8.43166852833947
  Dispersion energy:                                           -0.00069403349313

  Total energy:                                               -34.44774736930687

  outer SCF iter =    1 RMS gradient =   0.21E-06 energy =        -34.4477473693
  outer SCF loop converged in   1 iterations or    6 steps


 MOMENTS
  The electric/magnetic moments are written to file:
  water_dimer_dipole.out


 ENERGY| Total FORCE_EVAL ( QS ) energy (a.u.):              -34.447747369308999


 *******************************************************************************
 ENSEMBLE TYPE                =                                              NVT
 STEP NUMBER                  =                                                7
 TIME [fs]                    =                                         3.500000
 CONSERVED QUANTITY [hartree] =                              -0.344440911406E+02

                                              INSTANTANEOUS             AVERAGES
 CPU TIME [s]                 =                       48.68                64.70
 ENERGY DRIFT PER ATOM [K]    =          0.380300794706E-01   0.141222495302E+00
 POTENTIAL ENERGY[hartree]    =         -0.344477473693E+02  -0.344479053096E+02
 KINETIC ENERGY [hartree]     =          0.294651238792E-02   0.338587299305E-02
 TEMPERATURE [K]              =                     155.072              178.195
 *******************************************************************************


 Number of electrons:                                                         16
 Number of occupied orbitals:                                                  8
 Number of molecular orbitals:                                                 8

 Number of orbital functions:                                                 46
 Number of independent orbital functions:                                     46

 Extrapolation method: ASPC


 SCF WAVEFUNCTION OPTIMIZATION

  ----------------------------------- OT ---------------------------------------
  Minimizer      : DIIS                : direct inversion
                                         in the iterative subspace
                                         using   7 DIIS vectors
                                         safer DIIS on
  Preconditioner : FULL_ALL            : diagonalization, state selective
  Precond_solver : DEFAULT
  stepsize       :    0.15000000                  energy_gap     :    0.08000000
  eps_taylor     :   0.10000E-15                  max_taylor     :             4
  ----------------------------------- OT ---------------------------------------

  Step     Update method      Time    Convergence         Total energy    Change
  ------------------------------------------------------------------------------
     1 OT DIIS     0.15E+00    6.1     0.00009780       -34.4476184121 -3.44E+01
     2 OT DIIS     0.15E+00    6.8     0.00005198       -34.4476186728 -2.61E-07
     3 OT DIIS     0.15E+00    7.0     0.00002176       -34.4476187272 -5.44E-08
     4 OT DIIS     0.15E+00    6.8     0.00000131       -34.4476187422 -1.50E-08
     5 OT DIIS     0.15E+00    6.9     0.00000065       -34.4476187423 -5.85E-11

  *** SCF run converged in     5 steps ***


  Electronic density on regular grids:        -15.9999998999        0.0000001001
  Core density on regular grids:               15.9999999995       -0.0000000005
  Total charge density on r-space grids:        0.0000000996
  Total charge density g-space grids:           0.0000000996

  Overlap energy of the core charge distribution:               0.00000005058975
  Self energy of the core charge distribution:                -88.69430999347530
  Core Hamiltonian energy:                                     25.69284599856971
  Hartree energy:                                              36.98261075304879
  Exchange-correlation energy:                                 -8.42807307706368
  Dispersion energy:                                           -0.00069247396280

  Total energy:                                               -34.44761874229354

  outer SCF iter =    1 RMS gradient =   0.65E-06 energy =        -34.4476187423
  outer SCF loop converged in   1 iterations or    5 steps


 MOMENTS
  The electric/magnetic moments are written to file:
  water_dimer_dipole.out


 ENERGY| Total FORCE_EVAL ( QS ) energy (a.u.):              -34.447618742302367


 Temperature scaled to requested temperature:    139.00 K  ->    139.00 K
 MD| Old VCOM =     0.0000008757   -0.0000002933    0.0000012682 a.u.
 MD| New VCOM =     0.0000000000   -0.0000000000    0.0000000000 a.u

 *******************************************************************************
 ENSEMBLE TYPE                =                                              NVT
 STEP NUMBER                  =                                                8
 TIME [fs]                    =                                         4.000000
 CONSERVED QUANTITY [hartree] =                              -0.344440904905E+02

                                              INSTANTANEOUS             AVERAGES
 CPU TIME [s]                 =                       41.85                61.84
 ENERGY DRIFT PER ATOM [K]    =          0.722448709241E-01   0.132600292255E+00
 POTENTIAL ENERGY[hartree]    =         -0.344476187423E+02  -0.344478694887E+02
 KINETIC ENERGY [hartree]     =          0.264120203491E-02   0.329278912329E-02
 TEMPERATURE [K]              =                     139.004              173.297
 *******************************************************************************


 Number of electrons:                                                         16
 Number of occupied orbitals:                                                  8
 Number of molecular orbitals:                                                 8

 Number of orbital functions:                                                 46
 Number of independent orbital functions:                                     46

 Extrapolation method: ASPC


 SCF WAVEFUNCTION OPTIMIZATION

  ----------------------------------- OT ---------------------------------------
  Minimizer      : DIIS                : direct inversion
                                         in the iterative subspace
                                         using   7 DIIS vectors
                                         safer DIIS on
  Preconditioner : FULL_ALL            : diagonalization, state selective
  Precond_solver : DEFAULT
  stepsize       :    0.15000000                  energy_gap     :    0.08000000
  eps_taylor     :   0.10000E-15                  max_taylor     :             4
  ----------------------------------- OT ---------------------------------------

  Step     Update method      Time    Convergence         Total energy    Change
  ------------------------------------------------------------------------------
     1 OT DIIS     0.15E+00    6.0     0.00009184       -34.4474552051 -3.44E+01
     2 OT DIIS     0.15E+00    6.8     0.00004225       -34.4474554793 -2.74E-07
     3 OT DIIS     0.15E+00    7.0     0.00002321       -34.4474555233 -4.40E-08
     4 OT DIIS     0.15E+00    6.9     0.00000138       -34.4474555370 -1.36E-08
     5 OT DIIS     0.15E+00    6.9     0.00000062       -34.4474555370 -6.09E-11

  *** SCF run converged in     5 steps ***


  Electronic density on regular grids:        -15.9999999049        0.0000000951
  Core density on regular grids:               15.9999999995       -0.0000000005
  Total charge density on r-space grids:        0.0000000946
  Total charge density g-space grids:           0.0000000946

  Overlap energy of the core charge distribution:               0.00000004822254
  Self energy of the core charge distribution:                -88.69430999347530
  Core Hamiltonian energy:                                     25.68705518415847
  Hartree energy:                                              36.98700539491607
  Exchange-correlation energy:                                 -8.42651478989795
  Dispersion energy:                                           -0.00069138093870

  Total energy:                                               -34.44745553701487

  outer SCF iter =    1 RMS gradient =   0.62E-06 energy =        -34.4474555370
  outer SCF loop converged in   1 iterations or    5 steps


 MOMENTS
  The electric/magnetic moments are written to file:
  water_dimer_dipole.out


 ENERGY| Total FORCE_EVAL ( QS ) energy (a.u.):              -34.447455537025917

 MD| Old VANG =    -0.0000003598    0.0000014105    0.0000002796 a.u.
 MD| New VANG =    -0.0000000000    0.0000000000   -0.0000000000 a.u

 *******************************************************************************
 ENSEMBLE TYPE                =                                              NVT
 STEP NUMBER                  =                                                9
 TIME [fs]                    =                                         4.500000
 CONSERVED QUANTITY [hartree] =                              -0.344440891873E+02

                                              INSTANTANEOUS             AVERAGES
 CPU TIME [s]                 =                       41.98                59.64
 ENERGY DRIFT PER ATOM [K]    =          0.140830390820E+00   0.133514747651E+00
 POTENTIAL ENERGY[hartree]    =         -0.344474555370E+02  -0.344478234940E+02
 KINETIC ENERGY [hartree]     =          0.257673996163E-02   0.321322810532E-02
 TEMPERATURE [K]              =                     135.612              169.109
 *******************************************************************************


 Number of electrons:                                                         16
 Number of occupied orbitals:                                                  8
 Number of molecular orbitals:                                                 8

 Number of orbital functions:                                                 46
 Number of independent orbital functions:                                     46

 Extrapolation method: ASPC


 SCF WAVEFUNCTION OPTIMIZATION

  ----------------------------------- OT ---------------------------------------
  Minimizer      : DIIS                : direct inversion
                                         in the iterative subspace
                                         using   7 DIIS vectors
                                         safer DIIS on
  Preconditioner : FULL_ALL            : diagonalization, state selective
  Precond_solver : DEFAULT
  stepsize       :    0.15000000                  energy_gap     :    0.08000000
  eps_taylor     :   0.10000E-15                  max_taylor     :             4
  ----------------------------------- OT ---------------------------------------

  Step     Update method      Time    Convergence         Total energy    Change
  ------------------------------------------------------------------------------
     1 OT DIIS     0.15E+00    6.0     0.00017699       -34.4472928509 -3.44E+01
     2 OT DIIS     0.15E+00    6.8     0.00008301       -34.4472938722 -1.02E-06
     3 OT DIIS     0.15E+00    6.8     0.00004508       -34.4472940427 -1.70E-07
     4 OT DIIS     0.15E+00    6.8     0.00000183       -34.4472940951 -5.24E-08
     5 OT DIIS     0.15E+00    6.9     0.00000049       -34.4472940952 -1.32E-10

  *** SCF run converged in     5 steps ***


  Electronic density on regular grids:        -15.9999999093        0.0000000907
  Core density on regular grids:               15.9999999996       -0.0000000004
  Total charge density on r-space grids:        0.0000000903
  Total charge density g-space grids:           0.0000000903

  Overlap energy of the core charge distribution:               0.00000004933188
  Self energy of the core charge distribution:                -88.69430999347530
  Core Hamiltonian energy:                                     25.68950391611066
  Hartree energy:                                              36.98546675786726
  Exchange-correlation energy:                                 -8.42726397381584
  Dispersion energy:                                           -0.00069085121261

  Total energy:                                               -34.44729409519395

  outer SCF iter =    1 RMS gradient =   0.49E-06 energy =        -34.4472940952
  outer SCF loop converged in   1 iterations or    5 steps


 MOMENTS
  The electric/magnetic moments are written to file:
  water_dimer_dipole.out


 ENERGY| Total FORCE_EVAL ( QS ) energy (a.u.):              -34.447294095208179


 Temperature scaled to requested temperature:    131.11 K  ->    131.12 K
 MD| Old VCOM =     0.0000009219   -0.0000003107    0.0000010441 a.u.
 MD| New VCOM =     0.0000000000    0.0000000000    0.0000000000 a.u

 *******************************************************************************
 ENSEMBLE TYPE                =                                              NVT
 STEP NUMBER                  =                                               10
 TIME [fs]                    =                                         5.000000
 CONSERVED QUANTITY [hartree] =                              -0.344440884440E+02

                                              INSTANTANEOUS             AVERAGES
 CPU TIME [s]                 =                       41.70                57.84
 ENERGY DRIFT PER ATOM [K]    =          0.179953287187E+00   0.138158601605E+00
 POTENTIAL ENERGY[hartree]    =         -0.344472940952E+02  -0.344477705542E+02
 KINETIC ENERGY [hartree]     =          0.249130969012E-02   0.314103626380E-02
 TEMPERATURE [K]              =                     131.115              165.310
 *******************************************************************************


 Number of electrons:                                                         16
 Number of occupied orbitals:                                                  8
 Number of molecular orbitals:                                                 8

 Number of orbital functions:                                                 46
 Number of independent orbital functions:                                     46

 Extrapolation method: ASPC


 SCF WAVEFUNCTION OPTIMIZATION

  ----------------------------------- OT ---------------------------------------
  Minimizer      : DIIS                : direct inversion
                                         in the iterative subspace
                                         using   7 DIIS vectors
                                         safer DIIS on
  Preconditioner : FULL_ALL            : diagonalization, state selective
  Precond_solver : DEFAULT
  stepsize       :    0.15000000                  energy_gap     :    0.08000000
  eps_taylor     :   0.10000E-15                  max_taylor     :             4
  ----------------------------------- OT ---------------------------------------

  Step     Update method      Time    Convergence         Total energy    Change
  ------------------------------------------------------------------------------
     1 OT DIIS     0.15E+00    6.0     0.00010630       -34.4471450671 -3.44E+01
     2 OT DIIS     0.15E+00    6.9     0.00004836       -34.4471454442 -3.77E-07
     3 OT DIIS     0.15E+00    6.9     0.00002718       -34.4471455050 -6.08E-08
     4 OT DIIS     0.15E+00    6.9     0.00000122       -34.4471455232 -1.82E-08
     5 OT DIIS     0.15E+00    6.8     0.00000038       -34.4471455233 -5.58E-11

  *** SCF run converged in     5 steps ***


  Electronic density on regular grids:        -15.9999999129        0.0000000871
  Core density on regular grids:               15.9999999996       -0.0000000004
  Total charge density on r-space grids:        0.0000000867
  Total charge density g-space grids:           0.0000000866

  Overlap energy of the core charge distribution:               0.00000005376138
  Self energy of the core charge distribution:                -88.69430999347530
  Core Hamiltonian energy:                                     25.69990511001575
  Hartree energy:                                              36.97820062119867
  Exchange-correlation energy:                                 -8.43025052139360
  Dispersion energy:                                           -0.00069079339164

  Total energy:                                               -34.44714552328473

  outer SCF iter =    1 RMS gradient =   0.38E-06 energy =        -34.4471455233
  outer SCF loop converged in   1 iterations or    5 steps


 MOMENTS
  The electric/magnetic moments are written to file:
  water_dimer_dipole.out


 ENERGY| Total FORCE_EVAL ( QS ) energy (a.u.):              -34.447145523284441

 MD| Old VANG =    -0.0000003085    0.0000009561    0.0000002138 a.u.
 MD| New VANG =     0.0000000000    0.0000000000    0.0000000000 a.u

 *******************************************************************************
 ENSEMBLE TYPE                =                                              NVT
 STEP NUMBER                  =                                               11
 TIME [fs]                    =                                         5.500000
 CONSERVED QUANTITY [hartree] =                              -0.344440873809E+02

                                              INSTANTANEOUS             AVERAGES
 CPU TIME [s]                 =                       41.45                56.35
 ENERGY DRIFT PER ATOM [K]    =          0.235902354809E+00   0.147044397351E+00
 POTENTIAL ENERGY[hartree]    =         -0.344471455233E+02  -0.344477137332E+02
 KINETIC ENERGY [hartree]     =          0.242509748441E-02   0.307595092022E-02
 TEMPERATURE [K]              =                     127.631              161.885
 *******************************************************************************


 Number of electrons:                                                         16
 Number of occupied orbitals:                                                  8
 Number of molecular orbitals:                                                 8

 Number of orbital functions:                                                 46
 Number of independent orbital functions:                                     46

 Extrapolation method: ASPC


 SCF WAVEFUNCTION OPTIMIZATION

  ----------------------------------- OT ---------------------------------------
  Minimizer      : DIIS                : direct inversion
                                         in the iterative subspace
                                         using   7 DIIS vectors
                                         safer DIIS on
  Preconditioner : FULL_ALL            : diagonalization, state selective
  Precond_solver : DEFAULT
  stepsize       :    0.15000000                  energy_gap     :    0.08000000
  eps_taylor     :   0.10000E-15                  max_taylor     :             4
  ----------------------------------- OT ---------------------------------------

  Step     Update method      Time    Convergence         Total energy    Change
  ------------------------------------------------------------------------------
     1 OT DIIS     0.15E+00    6.0     0.00011388       -34.4470212395 -3.44E+01
     2 OT DIIS     0.15E+00    6.8     0.00005073       -34.4470216763 -4.37E-07
     3 OT DIIS     0.15E+00    6.8     0.00002878       -34.4470217449 -6.86E-08
     4 OT DIIS     0.15E+00    6.9     0.00000154       -34.4470217647 -1.98E-08
     5 OT DIIS     0.15E+00    6.9     0.00000057       -34.4470217647 -8.51E-11

  *** SCF run converged in     5 steps ***


  Electronic density on regular grids:        -15.9999999158        0.0000000842
  Core density on regular grids:               15.9999999996       -0.0000000004
  Total charge density on r-space grids:        0.0000000838
  Total charge density g-space grids:           0.0000000838

  Overlap energy of the core charge distribution:               0.00000006122074
  Self energy of the core charge distribution:                -88.69430999347530
  Core Hamiltonian energy:                                     25.71708894203585
  Hartree energy:                                              36.96603677871713
  Exchange-correlation energy:                                 -8.43514643117458
  Dispersion energy:                                           -0.00069112207093

  Total energy:                                               -34.44702176474710

  outer SCF iter =    1 RMS gradient =   0.57E-06 energy =        -34.4470217647
  outer SCF loop converged in   1 iterations or    5 steps


 MOMENTS
  The electric/magnetic moments are written to file:
  water_dimer_dipole.out


 ENERGY| Total FORCE_EVAL ( QS ) energy (a.u.):              -34.447021764756983


 Temperature scaled to requested temperature:    116.69 K  ->    116.69 K
 MD| Old VCOM =     0.0000008728   -0.0000003086    0.0000007549 a.u.
 MD| New VCOM =     0.0000000000    0.0000000000    0.0000000000 a.u

 *******************************************************************************
 ENSEMBLE TYPE                =                                              NVT
 STEP NUMBER                  =                                               12
 TIME [fs]                    =                                         6.000000
 CONSERVED QUANTITY [hartree] =                              -0.344440865893E+02

                                              INSTANTANEOUS             AVERAGES
 CPU TIME [s]                 =                       41.44                55.11
 ENERGY DRIFT PER ATOM [K]    =          0.277562766235E+00   0.157920928091E+00
 POTENTIAL ENERGY[hartree]    =         -0.344470217648E+02  -0.344476560691E+02
 KINETIC ENERGY [hartree]     =          0.221726727916E-02   0.300439395013E-02
 TEMPERATURE [K]              =                     116.693              158.119
 *******************************************************************************


 Number of electrons:                                                         16
 Number of occupied orbitals:                                                  8
 Number of molecular orbitals:                                                 8

 Number of orbital functions:                                                 46
 Number of independent orbital functions:                                     46

 Extrapolation method: ASPC


 SCF WAVEFUNCTION OPTIMIZATION

  ----------------------------------- OT ---------------------------------------
  Minimizer      : DIIS                : direct inversion
                                         in the iterative subspace
                                         using   7 DIIS vectors
                                         safer DIIS on
  Preconditioner : FULL_ALL            : diagonalization, state selective
  Precond_solver : DEFAULT
  stepsize       :    0.15000000                  energy_gap     :    0.08000000
  eps_taylor     :   0.10000E-15                  max_taylor     :             4
  ----------------------------------- OT ---------------------------------------

  Step     Update method      Time    Convergence         Total energy    Change
  ------------------------------------------------------------------------------
     1 OT DIIS     0.15E+00    6.0     0.00009484       -34.4469432784 -3.44E+01
     2 OT DIIS     0.15E+00    6.8     0.00003604       -34.4469436125 -3.34E-07
     3 OT DIIS     0.15E+00    6.8     0.00001322       -34.4469436661 -5.36E-08
     4 OT DIIS     0.15E+00    6.8     0.00000234       -34.4469436693 -3.19E-09
     5 OT DIIS     0.15E+00    6.8     0.00000047       -34.4469436694 -1.37E-10

  *** SCF run converged in     5 steps ***


  Electronic density on regular grids:        -15.9999999176        0.0000000824
  Core density on regular grids:               15.9999999996       -0.0000000004
  Total charge density on r-space grids:        0.0000000820
  Total charge density g-space grids:           0.0000000819

  Overlap energy of the core charge distribution:               0.00000007056509
  Self energy of the core charge distribution:                -88.69430999347530
  Core Hamiltonian energy:                                     25.73826986178650
  Hartree energy:                                              36.95095253942259
  Exchange-correlation energy:                                 -8.44116446845691
  Dispersion energy:                                           -0.00069167926602

  Total energy:                                               -34.44694366942405

  outer SCF iter =    1 RMS gradient =   0.47E-06 energy =        -34.4469436694
  outer SCF loop converged in   1 iterations or    5 steps


 MOMENTS
  The electric/magnetic moments are written to file:
  water_dimer_dipole.out


 ENERGY| Total FORCE_EVAL ( QS ) energy (a.u.):              -34.446943669428457

 MD| Old VANG =    -0.0000003342    0.0000009258    0.0000002236 a.u.
 MD| New VANG =    -0.0000000000    0.0000000000   -0.0000000000 a.u

 *******************************************************************************
 ENSEMBLE TYPE                =                                              NVT
 STEP NUMBER                  =                                               13
 TIME [fs]                    =                                         6.500000
 CONSERVED QUANTITY [hartree] =                              -0.344440857854E+02

                                              INSTANTANEOUS             AVERAGES
 CPU TIME [s]                 =                       41.62                54.07
 ENERGY DRIFT PER ATOM [K]    =          0.319869330221E+00   0.170378497486E+00
 POTENTIAL ENERGY[hartree]    =         -0.344469436694E+02  -0.344476012692E+02
 KINETIC ENERGY [hartree]     =          0.244847627428E-02   0.296163105199E-02
 TEMPERATURE [K]              =                     128.861              155.868
 *******************************************************************************


 Number of electrons:                                                         16
 Number of occupied orbitals:                                                  8
 Number of molecular orbitals:                                                 8

 Number of orbital functions:                                                 46
 Number of independent orbital functions:                                     46

 Extrapolation method: ASPC


 SCF WAVEFUNCTION OPTIMIZATION

  ----------------------------------- OT ---------------------------------------
  Minimizer      : DIIS                : direct inversion
                                         in the iterative subspace
                                         using   7 DIIS vectors
                                         safer DIIS on
  Preconditioner : FULL_ALL            : diagonalization, state selective
  Precond_solver : DEFAULT
  stepsize       :    0.15000000                  energy_gap     :    0.08000000
  eps_taylor     :   0.10000E-15                  max_taylor     :             4
  ----------------------------------- OT ---------------------------------------

  Step     Update method      Time    Convergence         Total energy    Change
  ------------------------------------------------------------------------------
     1 OT DIIS     0.15E+00    6.0     0.00016260       -34.4469027362 -3.44E+01
     2 OT DIIS     0.15E+00    6.9     0.00007120       -34.4469036611 -9.25E-07
     3 OT DIIS     0.15E+00    6.8     0.00004088       -34.4469038107 -1.50E-07
     4 OT DIIS     0.15E+00    6.9     0.00000153       -34.4469038488 -3.81E-08
     5 OT DIIS     0.15E+00    6.9     0.00000052       -34.4469038489 -7.86E-11

  *** SCF run converged in     5 steps ***


  Electronic density on regular grids:        -15.9999999188        0.0000000812
  Core density on regular grids:               15.9999999996       -0.0000000004
  Total charge density on r-space grids:        0.0000000807
  Total charge density g-space grids:           0.0000000807

  Overlap energy of the core charge distribution:               0.00000008195598
  Self energy of the core charge distribution:                -88.69430999347530
  Core Hamiltonian energy:                                     25.76388938666336
  Hartree energy:                                              36.93264172312911
  Exchange-correlation energy:                                 -8.44843268189208
  Dispersion energy:                                           -0.00069236528307

  Total energy:                                               -34.44690384890202

  outer SCF iter =    1 RMS gradient =   0.52E-06 energy =        -34.4469038489
  outer SCF loop converged in   1 iterations or    5 steps


 MOMENTS
  The electric/magnetic moments are written to file:
  water_dimer_dipole.out


 ENERGY| Total FORCE_EVAL ( QS ) energy (a.u.):              -34.446903848908633


 Temperature scaled to requested temperature:    141.05 K  ->    141.05 K
 MD| Old VCOM =     0.0000008814   -0.0000003380    0.0000005339 a.u.
 MD| New VCOM =     0.0000000000    0.0000000000   -0.0000000000 a.u

 *******************************************************************************
 ENSEMBLE TYPE                =                                              NVT
 STEP NUMBER                  =                                               14
 TIME [fs]                    =                                         7.000000
 CONSERVED QUANTITY [hartree] =                              -0.344440855986E+02

                                              INSTANTANEOUS             AVERAGES
 CPU TIME [s]                 =                       41.75                53.19
 ENERGY DRIFT PER ATOM [K]    =          0.329700369502E+00   0.181758631201E+00
 POTENTIAL ENERGY[hartree]    =         -0.344469038489E+02  -0.344475514534E+02
 KINETIC ENERGY [hartree]     =          0.268015369223E-02   0.294152552629E-02
 TEMPERATURE [K]              =                     141.054              154.810
 *******************************************************************************


 Number of electrons:                                                         16
 Number of occupied orbitals:                                                  8
 Number of molecular orbitals:                                                 8

 Number of orbital functions:                                                 46
 Number of independent orbital functions:                                     46

 Extrapolation method: ASPC


 SCF WAVEFUNCTION OPTIMIZATION

  ----------------------------------- OT ---------------------------------------
  Minimizer      : DIIS                : direct inversion
                                         in the iterative subspace
                                         using   7 DIIS vectors
                                         safer DIIS on
  Preconditioner : FULL_ALL            : diagonalization, state selective
  Precond_solver : DEFAULT
  stepsize       :    0.15000000                  energy_gap     :    0.08000000
  eps_taylor     :   0.10000E-15                  max_taylor     :             4
  ----------------------------------- OT ---------------------------------------

  Step     Update method      Time    Convergence         Total energy    Change
  ------------------------------------------------------------------------------
     1 OT DIIS     0.15E+00    6.0     0.00021054       -34.4469016857 -3.44E+01
     2 OT DIIS     0.15E+00    7.0     0.00009121       -34.4469031582 -1.47E-06
     3 OT DIIS     0.15E+00    6.9     0.00005092       -34.4469033783 -2.20E-07
     4 OT DIIS     0.15E+00    6.8     0.00000359       -34.4469034412 -6.28E-08
     5 OT DIIS     0.15E+00    7.0     0.00000075       -34.4469034416 -4.94E-10

  *** SCF run converged in     5 steps ***


  Electronic density on regular grids:        -15.9999999192        0.0000000808
  Core density on regular grids:               15.9999999995       -0.0000000005
  Total charge density on r-space grids:        0.0000000803
  Total charge density g-space grids:           0.0000000803

  Overlap energy of the core charge distribution:               0.00000009247199
  Self energy of the core charge distribution:                -88.69430999347530
  Core Hamiltonian energy:                                     25.78767698916617
  Hartree energy:                                              36.91559009039884
  Exchange-correlation energy:                                 -8.45516773902095
  Dispersion energy:                                           -0.00069288118636

  Total energy:                                               -34.44690344164560

  outer SCF iter =    1 RMS gradient =   0.75E-06 energy =        -34.4469034416
  outer SCF loop converged in   1 iterations or    5 steps


 MOMENTS
  The electric/magnetic moments are written to file:
  water_dimer_dipole.out


 ENERGY| Total FORCE_EVAL ( QS ) energy (a.u.):              -34.446903441660744


 *******************************************************************************
 ENSEMBLE TYPE                =                                              NVT
 STEP NUMBER                  =                                               15
 TIME [fs]                    =                                         7.500000
 CONSERVED QUANTITY [hartree] =                              -0.344440859211E+02

                                              INSTANTANEOUS             AVERAGES
 CPU TIME [s]                 =                       41.77                52.43
 ENERGY DRIFT PER ATOM [K]    =          0.312726632555E+00   0.190489831291E+00
 POTENTIAL ENERGY[hartree]    =         -0.344469034417E+02  -0.344475082526E+02
 KINETIC ENERGY [hartree]     =          0.265269204953E-02   0.292226996118E-02
 TEMPERATURE [K]              =                     139.609              153.796
 *******************************************************************************


 Number of electrons:                                                         16
 Number of occupied orbitals:                                                  8
 Number of molecular orbitals:                                                 8

 Number of orbital functions:                                                 46
 Number of independent orbital functions:                                     46

 Extrapolation method: ASPC


 SCF WAVEFUNCTION OPTIMIZATION

  ----------------------------------- OT ---------------------------------------
  Minimizer      : DIIS                : direct inversion
                                         in the iterative subspace
                                         using   7 DIIS vectors
                                         safer DIIS on
  Preconditioner : FULL_ALL            : diagonalization, state selective
  Precond_solver : DEFAULT
  stepsize       :    0.15000000                  energy_gap     :    0.08000000
  eps_taylor     :   0.10000E-15                  max_taylor     :             4
  ----------------------------------- OT ---------------------------------------

  Step     Update method      Time    Convergence         Total energy    Change
  ------------------------------------------------------------------------------
     1 OT DIIS     0.15E+00    6.1     0.00011805       -34.4469342087 -3.44E+01
     2 OT DIIS     0.15E+00    7.2     0.00004641       -34.4469347392 -5.31E-07
     3 OT DIIS     0.15E+00    6.9     0.00001154       -34.4469348343 -9.51E-08
     4 OT DIIS     0.15E+00    6.8     0.00000187       -34.4469348366 -2.25E-09
     5 OT DIIS     0.15E+00    6.9     0.00000035       -34.4469348367 -7.86E-11

  *** SCF run converged in     5 steps ***


  Electronic density on regular grids:        -15.9999999190        0.0000000810
  Core density on regular grids:               15.9999999995       -0.0000000005
  Total charge density on r-space grids:        0.0000000806
  Total charge density g-space grids:           0.0000000805

  Overlap energy of the core charge distribution:               0.00000010146165
  Self energy of the core charge distribution:                -88.69430999347530
  Core Hamiltonian energy:                                     25.80810624066640
  Hartree energy:                                              36.90089388908228
  Exchange-correlation energy:                                 -8.46093201645069
  Dispersion energy:                                           -0.00069305795343

  Total energy:                                               -34.44693483666909

  outer SCF iter =    1 RMS gradient =   0.35E-06 energy =        -34.4469348367
  outer SCF loop converged in   1 iterations or    5 steps


 MOMENTS
  The electric/magnetic moments are written to file:
  water_dimer_dipole.out


 ENERGY| Total FORCE_EVAL ( QS ) energy (a.u.):              -34.446934836675247

 MD| Old VANG =    -0.0000004612    0.0000013750    0.0000003288 a.u.
 MD| New VANG =     0.0000000000   -0.0000000000    0.0000000000 a.u

 *******************************************************************************
 ENSEMBLE TYPE                =                                              NVT
 STEP NUMBER                  =                                               16
 TIME [fs]                    =                                         8.000000
 CONSERVED QUANTITY [hartree] =                              -0.344440869421E+02

                                              INSTANTANEOUS             AVERAGES
 CPU TIME [s]                 =                       42.16                51.79
 ENERGY DRIFT PER ATOM [K]    =          0.258993002726E+00   0.194771279506E+00
 POTENTIAL ENERGY[hartree]    =         -0.344469348367E+02  -0.344474724141E+02
 KINETIC ENERGY [hartree]     =          0.285048928826E-02   0.291778366912E-02
 TEMPERATURE [K]              =                     150.019              153.560
 *******************************************************************************


 Number of electrons:                                                         16
 Number of occupied orbitals:                                                  8
[...]
  Total charge density on r-space grids:       -0.0000000201
  Total charge density g-space grids:          -0.0000000201

  Overlap energy of the core charge distribution:               0.00000010156638
  Self energy of the core charge distribution:                -88.69430999347530
  Core Hamiltonian energy:                                     25.78504952843037
  Hartree energy:                                              36.91514735562117
  Exchange-correlation energy:                                 -8.45027655426657
  Dispersion energy:                                           -0.00067950653988

  Total energy:                                               -34.44506906866383

  outer SCF iter =    1 RMS gradient =   0.75E-06 energy =        -34.4450690687
  outer SCF loop converged in   1 iterations or    5 steps


 MOMENTS
  The electric/magnetic moments are written to file:
  water_dimer_dipole.out


 ENERGY| Total FORCE_EVAL ( QS ) energy (a.u.):              -34.445069068674144


 Temperature scaled to requested temperature:    250.25 K  ->    250.25 K
 MD| Old VCOM =     0.0000008146    0.0000013267   -0.0000005470 a.u.
 MD| New VCOM =     0.0000000000   -0.0000000000   -0.0000000000 a.u

 *******************************************************************************
 ENSEMBLE TYPE                =                                              NVT
 STEP NUMBER                  =                                              531
 TIME [fs]                    =                                       265.500000
 CONSERVED QUANTITY [hartree] =                              -0.344441432712E+02

                                              INSTANTANEOUS             AVERAGES
 CPU TIME [s]                 =                       78.48                66.31
 ENERGY DRIFT PER ATOM [K]    =         -0.270555728070E+01  -0.141658486155E+01
 POTENTIAL ENERGY[hartree]    =         -0.344450690687E+02  -0.344447609192E+02
 KINETIC ENERGY [hartree]     =          0.475501081130E-02   0.404203423237E-02
 TEMPERATURE [K]              =                     250.252              212.729
 *******************************************************************************


 Number of electrons:                                                         16
 Number of occupied orbitals:                                                  8
 Number of molecular orbitals:                                                 8

 Number of orbital functions:                                                 46
 Number of independent orbital functions:                                     46

 Extrapolation method: ASPC


 SCF WAVEFUNCTION OPTIMIZATION

  ----------------------------------- OT ---------------------------------------
  Minimizer      : DIIS                : direct inversion
                                         in the iterative subspace
                                         using   7 DIIS vectors
                                         safer DIIS on
  Preconditioner : FULL_ALL            : diagonalization, state selective
  Precond_solver : DEFAULT
  stepsize       :    0.15000000                  energy_gap     :    0.08000000
  eps_taylor     :   0.10000E-15                  max_taylor     :             4
  ----------------------------------- OT ---------------------------------------

  Step     Update method      Time    Convergence         Total energy    Change
  ------------------------------------------------------------------------------
     1 OT DIIS     0.15E+00    8.8     0.00010030       -34.4453648720 -3.44E+01
     2 OT DIIS     0.15E+00    8.3     0.00004946       -34.4453651826 -3.11E-07
     3 OT DIIS     0.15E+00    8.0     0.00002561       -34.4453652368 -5.41E-08
     4 OT DIIS     0.15E+00    8.4     0.00000132       -34.4453652543 -1.76E-08
     5 OT DIIS     0.15E+00    8.0     0.00000051       -34.4453652544 -5.33E-11

  *** SCF run converged in     5 steps ***


  Electronic density on regular grids:        -16.0000000250       -0.0000000250
  Core density on regular grids:               15.9999999996       -0.0000000004
  Total charge density on r-space grids:       -0.0000000254
  Total charge density g-space grids:          -0.0000000254

  Overlap energy of the core charge distribution:               0.00000008740653
  Self energy of the core charge distribution:                -88.69430999347530
  Core Hamiltonian energy:                                     25.76441756399503
  Hartree energy:                                              36.92988637828598
  Exchange-correlation energy:                                 -8.44467907978260
  Dispersion energy:                                           -0.00068021082136

  Total energy:                                               -34.44536525439171

  outer SCF iter =    1 RMS gradient =   0.51E-06 energy =        -34.4453652544
  outer SCF loop converged in   1 iterations or    5 steps


 MOMENTS
  The electric/magnetic moments are written to file:
  water_dimer_dipole.out


 ENERGY| Total FORCE_EVAL ( QS ) energy (a.u.):              -34.445365254399420


 *******************************************************************************
 ENSEMBLE TYPE                =                                              NVT
 STEP NUMBER                  =                                              532
 TIME [fs]                    =                                       266.000000
 CONSERVED QUANTITY [hartree] =                              -0.344441514086E+02

                                              INSTANTANEOUS             AVERAGES
 CPU TIME [s]                 =                       53.19                66.29
 ENERGY DRIFT PER ATOM [K]    =         -0.313381717153E+01  -0.141981274183E+01
 POTENTIAL ENERGY[hartree]    =         -0.344453652544E+02  -0.344447620552E+02
 KINETIC ENERGY [hartree]     =          0.510772891790E-02   0.404403741787E-02
 TEMPERATURE [K]              =                     268.815              212.834
 *******************************************************************************


 Number of electrons:                                                         16
 Number of occupied orbitals:                                                  8
 Number of molecular orbitals:                                                 8

 Number of orbital functions:                                                 46
 Number of independent orbital functions:                                     46

 Extrapolation method: ASPC


 SCF WAVEFUNCTION OPTIMIZATION

  ----------------------------------- OT ---------------------------------------
  Minimizer      : DIIS                : direct inversion
                                         in the iterative subspace
                                         using   7 DIIS vectors
                                         safer DIIS on
  Preconditioner : FULL_ALL            : diagonalization, state selective
  Precond_solver : DEFAULT
  stepsize       :    0.15000000                  energy_gap     :    0.08000000
  eps_taylor     :   0.10000E-15                  max_taylor     :             4
  ----------------------------------- OT ---------------------------------------

  Step     Update method      Time    Convergence         Total energy    Change
  ------------------------------------------------------------------------------
     1 OT DIIS     0.15E+00    8.1     0.00011492       -34.4455963682 -3.44E+01
     2 OT DIIS     0.15E+00   22.0     0.00005383       -34.4455968030 -4.35E-07
     3 OT DIIS     0.15E+00   13.0     0.00002944       -34.4455968763 -7.32E-08
     4 OT DIIS     0.15E+00    8.2     0.00000112       -34.4455968986 -2.23E-08
     5 OT DIIS     0.15E+00   17.2     0.00000047       -34.4455968986 -4.03E-11

  *** SCF run converged in     5 steps ***


  Electronic density on regular grids:        -16.0000000299       -0.0000000299
  Core density on regular grids:               15.9999999995       -0.0000000005
  Total charge density on r-space grids:       -0.0000000304
  Total charge density g-space grids:          -0.0000000304

  Overlap energy of the core charge distribution:               0.00000007558971
  Self energy of the core charge distribution:                -88.69430999347530
  Core Hamiltonian energy:                                     25.74522126953288
  Hartree energy:                                              36.94366242986361
  Exchange-correlation energy:                                 -8.43948965129443
  Dispersion energy:                                           -0.00068102882426

  Total energy:                                               -34.44559689860778

  outer SCF iter =    1 RMS gradient =   0.47E-06 energy =        -34.4455968986
  outer SCF loop converged in   1 iterations or    5 steps


 MOMENTS
  The electric/magnetic moments are written to file:
  water_dimer_dipole.out


 ENERGY| Total FORCE_EVAL ( QS ) energy (a.u.):              -34.445596898612379


 Temperature scaled to requested temperature:    281.55 K  ->    281.55 K
 MD| Old VCOM =     0.0000007260    0.0000015513   -0.0000005529 a.u.
 MD| New VCOM =     0.0000000000    0.0000000000   -0.0000000000 a.u

 *******************************************************************************
 ENSEMBLE TYPE                =                                              NVT
 STEP NUMBER                  =                                              533
 TIME [fs]                    =                                       266.500000
 CONSERVED QUANTITY [hartree] =                              -0.344441567426E+02

                                              INSTANTANEOUS             AVERAGES
 CPU TIME [s]                 =                       86.66                66.33
 ENERGY DRIFT PER ATOM [K]    =         -0.341454453344E+01  -0.142355520298E+01
 POTENTIAL ENERGY[hartree]    =         -0.344455968986E+02  -0.344447636215E+02
 KINETIC ENERGY [hartree]     =          0.534977843265E-02   0.404648721339E-02
 TEMPERATURE [K]              =                     281.554              212.963
 *******************************************************************************


 Number of electrons:                                                         16
 Number of occupied orbitals:                                                  8
 Number of molecular orbitals:                                                 8

 Number of orbital functions:                                                 46
 Number of independent orbital functions:                                     46

 Extrapolation method: ASPC


 SCF WAVEFUNCTION OPTIMIZATION

  ----------------------------------- OT ---------------------------------------
  Minimizer      : DIIS                : direct inversion
                                         in the iterative subspace
                                         using   7 DIIS vectors
                                         safer DIIS on
  Preconditioner : FULL_ALL            : diagonalization, state selective
  Precond_solver : DEFAULT
  stepsize       :    0.15000000                  energy_gap     :    0.08000000
  eps_taylor     :   0.10000E-15                  max_taylor     :             4
  ----------------------------------- OT ---------------------------------------

  Step     Update method      Time    Convergence         Total energy    Change
  ------------------------------------------------------------------------------
     1 OT DIIS     0.15E+00    9.9     0.00007363       -34.4456954761 -3.44E+01
     2 OT DIIS     0.15E+00    7.8     0.00003211       -34.4456956621 -1.86E-07
     3 OT DIIS     0.15E+00   15.1     0.00001892       -34.4456956906 -2.86E-08
     4 OT DIIS     0.15E+00   16.9     0.00000111       -34.4456956987 -8.07E-09
     5 OT DIIS     0.15E+00   30.4     0.00000042       -34.4456956988 -4.18E-11

  *** SCF run converged in     5 steps ***


  Electronic density on regular grids:        -16.0000000346       -0.0000000346
  Core density on regular grids:               15.9999999995       -0.0000000005
  Total charge density on r-space grids:       -0.0000000351
  Total charge density g-space grids:          -0.0000000352

  Overlap energy of the core charge distribution:               0.00000006715077
  Self energy of the core charge distribution:                -88.69430999347530
  Core Hamiltonian energy:                                     25.72932438939511
  Hartree energy:                                              36.95519082684871
  Exchange-correlation energy:                                 -8.43521896060124
  Dispersion energy:                                           -0.00068202807652

  Total energy:                                               -34.44569569875847

  outer SCF iter =    1 RMS gradient =   0.42E-06 energy =        -34.4456956988
  outer SCF loop converged in   1 iterations or    5 steps


 MOMENTS
  The electric/magnetic moments are written to file:
  water_dimer_dipole.out


 ENERGY| Total FORCE_EVAL ( QS ) energy (a.u.):              -34.445695698762457

 MD| Old VANG =    -0.0000002466    0.0000002598    0.0000010744 a.u.
 MD| New VANG =     0.0000000000   -0.0000000000   -0.0000000000 a.u

 *******************************************************************************
 ENSEMBLE TYPE                =                                              NVT
 STEP NUMBER                  =                                              534
 TIME [fs]                    =                                       267.000000
 CONSERVED QUANTITY [hartree] =                              -0.344441584635E+02

                                              INSTANTANEOUS             AVERAGES
 CPU TIME [s]                 =                      121.62                66.43
 ENERGY DRIFT PER ATOM [K]    =         -0.350511475152E+01  -0.142745325457E+01
 POTENTIAL ENERGY[hartree]    =         -0.344456956988E+02  -0.344447653669E+02
 KINETIC ENERGY [hartree]     =          0.512037727838E-02   0.404849824348E-02
 TEMPERATURE [K]              =                     269.481              213.069
 *******************************************************************************


 Number of electrons:                                                         16
 Number of occupied orbitals:                                                  8
 Number of molecular orbitals:                                                 8

 Number of orbital functions:                                                 46
 Number of independent orbital functions:                                     46

 Extrapolation method: ASPC


 SCF WAVEFUNCTION OPTIMIZATION

  ----------------------------------- OT ---------------------------------------
  Minimizer      : DIIS                : direct inversion
                                         in the iterative subspace
                                         using   7 DIIS vectors
                                         safer DIIS on
  Preconditioner : FULL_ALL            : diagonalization, state selective
  Precond_solver : DEFAULT
  stepsize       :    0.15000000                  energy_gap     :    0.08000000
  eps_taylor     :   0.10000E-15                  max_taylor     :             4
  ----------------------------------- OT ---------------------------------------

  Step     Update method      Time    Convergence         Total energy    Change
  ------------------------------------------------------------------------------
     1 OT DIIS     0.15E+00   10.1     0.00007967       -34.4456315772 -3.44E+01
     2 OT DIIS     0.15E+00    6.8     0.00004233       -34.4456317477 -1.71E-07
     3 OT DIIS     0.15E+00    7.9     0.00001749       -34.4456317830 -3.52E-08
     4 OT DIIS     0.15E+00   31.3     0.00000125       -34.4456317924 -9.41E-09
     5 OT DIIS     0.15E+00   14.5     0.00000056       -34.4456317924 -5.65E-11

  *** SCF run converged in     5 steps ***


  Electronic density on regular grids:        -16.0000000394       -0.0000000394
  Core density on regular grids:               15.9999999994       -0.0000000006
  Total charge density on r-space grids:       -0.0000000400
  Total charge density g-space grids:          -0.0000000400

  Overlap energy of the core charge distribution:               0.00000006246232
  Self energy of the core charge distribution:                -88.69430999347530
  Core Hamiltonian energy:                                     25.71827657395263
  Hartree energy:                                              36.96338203101061
  Exchange-correlation energy:                                 -8.43229721994100
  Dispersion energy:                                           -0.00068324642610

  Total energy:                                               -34.44563179241684

  outer SCF iter =    1 RMS gradient =   0.56E-06 energy =        -34.4456317924
  outer SCF loop converged in   1 iterations or    5 steps


 MOMENTS
  The electric/magnetic moments are written to file:
  water_dimer_dipole.out


 ENERGY| Total FORCE_EVAL ( QS ) energy (a.u.):              -34.445631792422581


 Temperature scaled to requested temperature:    291.41 K  ->    291.41 K
 MD| Old VCOM =     0.0000007087    0.0000017546   -0.0000005705 a.u.
 MD| New VCOM =     0.0000000000    0.0000000000    0.0000000000 a.u

 *******************************************************************************
 ENSEMBLE TYPE                =                                              NVT
 STEP NUMBER                  =                                              535
 TIME [fs]                    =                                       267.500000
 CONSERVED QUANTITY [hartree] =                              -0.344441571803E+02

                                              INSTANTANEOUS             AVERAGES
 CPU TIME [s]                 =                       86.72                66.47
 ENERGY DRIFT PER ATOM [K]    =         -0.343757829386E+01  -0.143121049763E+01
 POTENTIAL ENERGY[hartree]    =         -0.344456317924E+02  -0.344447669864E+02
 KINETIC ENERGY [hartree]     =          0.553711337884E-02   0.405128070168E-02
 TEMPERATURE [K]              =                     291.413              213.215
 *******************************************************************************


 Number of electrons:                                                         16
 Number of occupied orbitals:                                                  8
 Number of molecular orbitals:                                                 8

 Number of orbital functions:                                                 46
 Number of independent orbital functions:                                     46

 Extrapolation method: ASPC


 SCF WAVEFUNCTION OPTIMIZATION

  ----------------------------------- OT ---------------------------------------
  Minimizer      : DIIS                : direct inversion
                                         in the iterative subspace
                                         using   7 DIIS vectors
                                         safer DIIS on
  Preconditioner : FULL_ALL            : diagonalization, state selective
  Precond_solver : DEFAULT
  stepsize       :    0.15000000                  energy_gap     :    0.08000000
  eps_taylor     :   0.10000E-15                  max_taylor     :             4
  ----------------------------------- OT ---------------------------------------

  Step     Update method      Time    Convergence         Total energy    Change
  ------------------------------------------------------------------------------
     1 OT DIIS     0.15E+00    7.2     0.00011925       -34.4454284982 -3.44E+01
     2 OT DIIS     0.15E+00   10.2     0.00006578       -34.4454288734 -3.75E-07
     3 OT DIIS     0.15E+00   37.2     0.00002668       -34.4454289564 -8.30E-08
     4 OT DIIS     0.15E+00   23.1     0.00000182       -34.4454289787 -2.22E-08
