       6
 i =        0, time =        0.000, E =       -34.4478920416
  H         5.6821684572        7.4609162981        8.0689954170
  H         7.0445292989        7.4987157681        7.3404634529
  O         6.0870348932        7.5014263346        7.1990799757
  H         9.3178315428        8.2718318127        6.9796365913
  H         9.2997220345        6.7281681873        6.9310045830
  O         9.0174607918        7.4879489376        7.4460378111
       6
 i =        1, time =        0.500, E =       -34.4479879299
  H         5.6916465257        7.4568232323        8.0700753150
  H         7.0474403710        7.4978051931        7.3383349316
  O         6.0850079702        7.5016880814        7.1990518472
  H         9.3289912699        8.2648520914        6.9810249999
  H         9.3101458184        6.7248881298        6.9304348997
  O         9.0173481181        7.4886477273        7.4460926712
       6
 i =        2, time =        1.000, E =       -34.4479944476
  H         5.7006836152        7.4526983944        8.0724953044
  H         7.0509672782        7.4968947084        7.3366500017
  O         6.0830013541        7.5019485524        7.1989500003
  H         9.3407190486        8.2590943192        6.9814225042
  H         9.3207444273        6.7215039307        6.9294897521
  O         9.0171611920        7.4892767950        7.4462180177
       6
 i =        3, time =        1.500, E =       -34.4479588565
  H         5.7087980658        7.4486654028        8.0763149128
  H         7.0544461325        7.4960300766        7.3352511161
  O         6.0811273375        7.5022062958        7.1987167400
  H         9.3526670679        8.2549439574        6.9808290398
  H         9.3308811357        6.7186765378        6.9287124472
  O         9.0169166239        7.4897656814        7.4463961815
       6
 i =        4, time =        2.000, E =       -34.4479207438
  H         5.7162713369        7.4445561144        8.0817266069
  H         7.0575079933        7.4951874683        7.3339534860
  O         6.0793506438        7.5024636492        7.1984117440
  H         9.3652210918        8.2522128627        6.9793178290
  H         9.3406720148        6.7167578859        6.9284675185
  O         9.0166329230        7.4901084261        7.4465845672
       6
 i =        5, time =        2.500, E =       -34.4478885768
  H         5.7229480766        7.4404817190        8.0883000813
  H         7.0596511966        7.4944049814        7.3326126851
  O         6.0777337085        7.5027214345        7.1980108010
  H         9.3779338907        8.2507324331        6.9771895677
  H         9.3496640436        6.7161177089        6.9291031114
  O         9.0163315268        7.4902884599        7.4467599548
       6
 i =        6, time =        3.000, E =       -34.4478392432
  H         5.7293724822        7.4362098231        8.0960833506
  H         7.0606884251        7.4936447297        7.3310547063
  O         6.0761960537        7.5029845425        7.1975765380
  H         9.3913408248        8.2500457897        6.9746143002
  H         9.3582301315        6.7169099125        6.9308648483
  O         9.0160301883        7.4903302141        7.4468829894
       6
 i =        7, time =        3.500, E =       -34.4477473693
  H         5.7354064295        7.4319622011        8.1041400396
  H         7.0603606558        7.4929580950        7.3292116242
  O         6.0747990498        7.5032480512        7.1971165883
  H         9.4045846002        8.2497209478        6.9721131481
  H         9.3658940076        6.7191363669        6.9338249948
  O         9.0157560332        7.4902559019        7.4469313961
       6
 i =        8, time =        4.000, E =       -34.4476187423
  H         5.7410448019        7.4279239364        8.1116367691
  H         7.0586767556        7.4923743825        7.3271053980
  O         6.0735857246        7.5034901080        7.1967381911
  H         9.4168885502        8.2492939116        6.9701361295
  H         9.3723843185        6.7225390341        6.9378319287
  O         9.0155524341        7.4901121215        7.4468666388
       6
 i =        9, time =        4.500, E =       -34.4474555370
  H         5.7468751449        7.4238238286        8.1185808249
  H         7.0555977815        7.4918607350        7.3245000189
  O         6.0724325711        7.5037298154        7.1964344284
  H         9.4289174737        8.2483236284        6.9688649712
  H         9.3782556988        6.7270832123        6.9430806489
  O         9.0154102176        7.4899360396        7.4466538412
       6
 i =       10, time =        5.000, E =       -34.4472940952
  H         5.7524933381        7.4200549648        8.1238658698
  H         7.0516399601        7.4914684700        7.3215839610
  O         6.0714279494        7.5039498772        7.1962324264
  H         9.4394148264        8.2465797707        6.9687617170
  H         9.3831449726        6.7319260906        6.9489820907
  O         9.0153572232        7.4897774220        7.4463608388
       6
 i =       11, time =        5.500, E =       -34.4471455233
  H         5.7584389346        7.4163290047        8.1276573175
  H         7.0468171486        7.4911700403        7.3180999601
  O         6.0704457298        7.5041599972        7.1961690064
  H         9.4490634164        8.2437645564        6.9699315820
  H         9.3876279669        6.7369493834        6.9557098170
  O         9.0153839729        7.4896798298        7.4459125866
       6
 i =       12, time =        6.000, E =       -34.4470217648
  H         5.7646781968        7.4126851061        8.1296887872
  H         7.0415854488        7.4909734784        7.3140400162
  O         6.0694747974        7.5043614191        7.1962405232
  H         9.4577031658        8.2398265697        6.9725610667
  H         9.3919021310        6.7415198071        6.9629963178
  O         9.0154945278        7.4896746852        7.4453589672
       6
 i =       13, time =        6.500, E =       -34.4469436694
  H         5.7708833806        7.4092847323        8.1298926944
  H         7.0366564569        7.4908922916        7.3095754161
  O         6.0685164056        7.5045409866        7.1964645298
  H         9.4649225885        8.2350648971        6.9764935610
  H         9.3959989870        6.7448463702        6.9701924762
  O         9.0156649030        7.4898029240        7.4447064705
       6
 i =       14, time =        7.000, E =       -34.4469038489
  H         5.7777814909        7.4056524576        8.1283655896
  H         7.0318905805        7.4909233921        7.3040618412
  O         6.0674251646        7.5047279287        7.1968453773
  H         9.4717577426        8.2290477407        6.9822857964
  H         9.4007078684        6.7467704324        6.9780671001
  O         9.0159114310        7.4900943663        7.4439194316
       6
 i =       15, time =        7.500, E =       -34.4469034417
  H         5.7843033371        7.4022323251        8.1256422922
  H         7.0284041338        7.4910720096        7.2981957061
  O         6.0663104196        7.5048952933        7.1973369492
  H         9.4774410797        8.2229657125        6.9889821128
  H         9.4055709363        6.7465701400        6.9853693123
  O         9.0161754215        7.4905268821        7.4430890213
       6
 i =       16, time =        8.000, E =       -34.4469348367
  H         5.7906204612        7.3987747940        8.1220905826
  H         7.0263681509        7.4913474796        7.2916418026
  O         6.0651088504        7.5050518292        7.1979401906
  H         9.4825724523        8.2169927543        6.9966801848
  H         9.4109413451        6.7440300309        6.9924480179
  O         9.0164598086        7.4911009440        7.4421942054
       6
 i =       17, time =        8.500, E =       -34.4469783758
  H         5.7961991902        7.3953783803        8.1184407463
  H         7.0260639565        7.4917469987        7.2846768587
  O         6.0638819423        7.5052054222        7.1985460283
  H         9.4872583638        8.2119706445        7.0047434797
  H         9.4165310379        6.7393076727        6.9990755365
  O         9.0167288267        7.4917399230        7.4413327634
       6
 i =       18, time =        9.000, E =       -34.4470317810
  H         5.8006259426        7.3921340292        8.1155440601
  H         7.0273900273        7.4922528806        7.2776647408
  O         6.0626900009        7.5053470492        7.1991270630
  H         9.4916115126        8.2086433135        7.0123711400
  H         9.4219003781        6.7330362524        7.0050743937
  O         9.0169490103        7.4923735168        7.4405154306
       6
 i =       19, time =        9.500, E =       -34.4471049912
  H         5.8041762254        7.3886864676        8.1136397257
  H         7.0301970913        7.4929092127        7.2699895684
  O         6.0614650457        7.5054953743        7.1996697234
  H         9.4963492287        8.2070784784        7.0199871283
  H         9.4273157419        6.7251876087        7.0112520601
  O         9.0171420611        7.4929879459        7.4396983183
       6
 i =       20, time =       10.000, E =       -34.4471987394
  H         5.8067680069        7.3849969886        8.1131945491
  H         7.0340725401        7.4937152657        7.2617236967
  O         6.0602419674        7.5056454388        7.2001714501
  H         9.5016741653        8.2075580335        7.0272907493
  H         9.4324749770        6.7164257592        7.0178174437
  O         9.0173088253        7.4935310189        7.4388535368
       6
 i =       21, time =       10.500, E =       -34.4473079965
  H         5.8083795947        7.3810680007        8.1143908706
  H         7.0384597175        7.4946762920        7.2529652045
  O         6.0590581181        7.5058111538        7.2005924598
  H         9.5076770446        8.2101075259        7.0341828832
  H         9.4370711963        6.7074850115        7.0250391626
  O         9.0174478145        7.4939529518        7.4380143955
       6
 i =       22, time =       11.000, E =       -34.4474118087
  H         5.8091521759        7.3768638568        8.1172222646
  H         7.0428130278        7.4957888700        7.2437293280
  O         6.0579378685        7.5059808561        7.2009534894
  H         9.5143770879        8.2145342221        7.0406722465
  H         9.4409022806        6.6989631883        7.0331419981
  O         9.0175818743        7.4942301574        7.4371191281
       6
 i =       23, time =       11.500, E =       -34.4474755511
  H         5.8092474616        7.3725233246        8.1213084987
  H         7.0464790254        7.4970268692        7.2343273764
  O         6.0569316360        7.5061598504        7.2012383000
  H         9.5214772540        8.2202922562        7.0467905628
  H         9.4437214032        6.6916067918        7.0421298410
  O         9.0177246943        7.4943454917        7.4362099779
       6
 i =       24, time =       12.000, E =       -34.4474805260
  H         5.8089391086        7.3681509409        8.1261410369
  H         7.0489607917        7.4983574237        7.2249834683
  O         6.0560584436        7.5063320242        7.2014862605
  H         9.5286326166        8.2267181177        7.0526172195
  H         9.4454362127        6.6858839316        7.0518981446
  O         9.0178954561        7.4943154596        7.4352392493
       6
 i =       25, time =       12.500, E =       -34.4474295190
  H         5.8084867598        7.3637648240        8.1311979170
  H         7.0499849736        7.4997925485        7.2156761910
  O         6.0553124925        7.5065068241        7.2017126218
  H         9.5356728947        8.2332561581        7.0585321484
  H         9.4461163437        6.6818967425        7.0626133146
  O         9.0181153056        7.4941642680        7.4342234038
       6
 i =       26, time =       13.000, E =       -34.4473385534
  H         5.8081643403        7.3593285789        8.1360426072
  H         7.0493716401        7.5013488113        7.2062820652
  O         6.0546610280        7.5066735126        7.2019695278
  H         9.5424659915        8.2394415156        7.0648531133
  H         9.4458837751        6.6795877862        7.0744051971
  O         9.0183991743        7.4939302135        7.4330810412
       6
 i =       27, time =       13.500, E =       -34.4472545018
  H         5.8082326624        7.3553504208        8.1396740270
  H         7.0472045108        7.5028648576        7.1978133823
  O         6.0541584631        7.5068227460        7.2022438683
  H         9.5481355792        8.2441362478        7.0712139653
  H         9.4449998024        6.6789684476        7.0860087431
  O         9.0187269258        7.4936780775        7.4319685229
       6
 i =       28, time =       14.000, E =       -34.4471951005
  H         5.8089041083        7.3514300293        8.1421489088
  H         7.0433939195        7.5044923027        7.1893971325
  O         6.0537176629        7.5069588088        7.2026112126
  H         9.5531513232        8.2474803406        7.0784023125
  H         9.4436553205        6.6796152864        7.0984745651
  O         9.0191279406        7.4934339561        7.4307255698
       6
 i =       29, time =       14.500, E =       -34.4471673034
  H         5.8102434181        7.3479396917        8.1429703944
  H         7.0385490799        7.5060846971        7.1817987984
  O         6.0533499641        7.5070772495        7.2030185570
  H         9.5570227341        8.2489206442        7.0859216678
  H         9.4423101710        6.6809870664        7.1105472956
  O         9.0195503291        7.4932570169        7.4294988394
       6
 i =       30, time =       15.000, E =       -34.4471685536
  H         5.8122761606        7.3449463829        8.1421722816
  H         7.0332310133        7.5075913152        7.1752182118
  O         6.0530273477        7.5071670585        7.2034885590
  H         9.5597318424        8.2484437595        7.0935162891
  H         9.4413565518        6.6824828052        7.1216797269
  O         9.0199616563        7.4931959167        7.4283017439
       6
 i =       31, time =       15.500, E =       -34.4471762852
  H         5.8151568183        7.3421635872        8.1397909492
  H         7.0274672527        7.5091424685        7.1690715378
  O         6.0526921540        7.5072479861        7.2040194196
  H         9.5616859074        8.2461311008        7.1018168557
  H         9.4410515870        6.6836740687        7.1326834659
  O         9.0203661733        7.4932625586        7.4270798382
       6
 i =       32, time =       16.000, E =       -34.4471641447
  H         5.8186587809        7.3397136714        8.1363234775
  H         7.0221556254        7.5106294978        7.1637647005
  O         6.0523326001        7.5073084920        7.2045898873
  H         9.5630040802        8.2424275167        7.1100891694
  H         9.4417100930        6.6840139381        7.1426447520
  O         9.0207057406        7.4934739975        7.4259013592
       6
 i =       33, time =       16.500, E =       -34.4471029101
  H         5.8230583759        7.3372478778        8.1317844597
  H         7.0172353016        7.5122231541        7.1586845128
  O         6.0518848477        7.5073713643        7.2052027164
  H         9.5641922251        8.2373228775        7.1191125958
  H         9.4436356716        6.6831740191        7.1525972054
  O         9.0209798390        7.4938399261        7.4246870701
       6
 i =       34, time =       17.000, E =       -34.4469646005
  H         5.8282279846        7.3346756001        8.1268186607
  H         7.0132640908        7.5139101684        7.1538798011
  O         6.0513245143        7.5074316357        7.2058505564
  H         9.5656862521        8.2313887707        7.1285327967
  H         9.4469957238        6.6809484026        7.1623753674
  O         9.0211474875        7.4943487545        7.4234333637
       6
 i =       35, time =       17.500, E =       -34.4467774672
  H         5.8336895630        7.3320120449        8.1223708005
  H         7.0108598038        7.5156060427        7.1495831926
  O         6.0506723643        7.5075051839        7.2064219033
  H         9.5679410288        8.2256110950        7.1375989463
  H         9.4516061302        6.6775032939        7.1714977133
  O         9.0211621839        7.4949163330        7.4222552037
       6
 i =       36, time =       18.000, E =       -34.4465951509
  H         5.8396352754        7.3289455194        8.1189229002
  H         7.0100912476        7.5174179600        7.1455116796
  O         6.0498821828        7.5075935101        7.2069416188
  H         9.5716325000        8.2203076983        7.1465774976
  H         9.4576422109        6.6729095021        7.1806193518
  O         9.0209997954        7.4955295191        7.4210570993
       6
 i =       37, time =       18.500, E =       -34.4465232769
  H         5.8453229281        7.3256567995        8.1173736195
  H         7.0110145253        7.5191792892        7.1420252060
  O         6.0490438087        7.5077063148        7.2072927156
  H         9.5768451487        8.2165270126        7.1544552200
  H         9.4642665092        6.6680794628        7.1890480109
  O         9.0206614318        7.4960541599        7.4199842124
       6
 i =       38, time =       19.000, E =       -34.4466181149
  H         5.8508616469        7.3219695948        8.1180154668
  H         7.0133760741        7.5209409991        7.1390017126
  O         6.0481509853        7.5078400609        7.2074984196
  H         9.5839302340        8.2144203816        7.1613779062
  H         9.4713621558        6.6634378337        7.1972054570
  O         9.0201475475        7.4964654080        7.4189668323
       6
 i =       39, time =       19.500, E =       -34.4468537714
  H         5.8562558714        7.3178508254        8.1208578441
  H         7.0167850922        7.5227168479        7.1364119949
  O         6.0472264229        7.5080075263        7.2075289353
  H         9.5929298790        8.2139468166        7.1674746512
  H         9.4786480521        6.6594947367        7.2053389453
  O         9.0194746891        7.4967221754        7.4180123242
       6
 i =       40, time =       20.000, E =       -34.4471200719
  H         5.8613060383        7.3135563936        8.1254749100
  H         7.0205458707        7.5244075528        7.1343971021
  O         6.0463417933        7.5081863610        7.2074294329
  H         9.6030929775        8.2148043232        7.1725641117
  H         9.4854674678        6.6569073832        7.2131462729
  O         9.0187162548        7.4968146328        7.4171239635
       6
 i =       41, time =       20.500, E =       -34.4473141048
  H         5.8665227793        7.3088460098        8.1316968547
  H         7.0244322040        7.5261424869        7.1328054481
  O         6.0454523254        7.5083847022        7.2072251324
  H         9.6147730712        8.2165269580        7.1772840677
  H         9.4921372044        6.6557903415        7.2213531220
  O         9.0178571013        7.4967638663        7.4162109717
       6
 i =       42, time =       21.000, E =       -34.4473404635
  H         5.8718127415        7.3040498861        8.1385501366
  H         7.0277981892        7.5278557666        7.1316991315
  O         6.0446175059        7.5086028354        7.2069260773
  H         9.6269576502        8.2183837029        7.1817694352
  H         9.4982263477        6.6563661319        7.2297492520
  O         9.0169753327        7.4965850924        7.4153256063
       6
 i =       43, time =       21.500, E =       -34.4471897712
  H         5.8775917305        7.2990842871        8.1456498453
  H         7.0303651854        7.5296191401        7.1310446514
  O         6.0438121212        7.5088244873        7.2066055480
  H         9.6396005456        8.2198062809        7.1864434257
  H         9.5039441855        6.6587258777        7.2387385482
  O         9.0160775724        7.4963255139        7.4143689941
       6
 i =       44, time =       22.000, E =       -34.4469288678
  H         5.8837806005        7.2942794872        8.1519961362
  H         7.0316992327        7.5313723650        7.1308550565
  O         6.0430765897        7.5090313579        7.2063224873
  H         9.6516503405        8.2201164313        7.1913925530
  H         9.5090776113        6.6626803404        7.2480271789
  O         9.0152356101        7.4960411715        7.4133576547
       6
 i =       45, time =       22.500, E =       -34.4466720134
  H         5.8903704249        7.2898295852        8.1568418300
  H         7.0315970151        7.5331135473        7.1310784000
  O         6.0424268736        7.5092316578        7.2060850854
  H         9.6624707929        8.2188088673        7.1968267639
  H         9.5136387502        6.6678766272        7.2575485039
  O         9.0144862910        7.4957658734        7.4123249401
       6
 i =       46, time =       23.000, E =       -34.4465209865
  H         5.8973298355        7.2858752813        8.1597193243
  H         7.0300151690        7.5348267472        7.1316562029
  O         6.0418664291        7.5093957346        7.2059647525
  H         9.6715360889        8.2156369754        7.2027616065
  H         9.5177216958        6.6738515554        7.2671339740
  O         9.0138581337        7.4955661401        7.4112423982
       6
 i =       47, time =       23.500, E =       -34.4465182942
  H         5.9046916739        7.2824346458        8.1604058285
  H         7.0270446972        7.5365478425        7.1325009283
  O         6.0413836848        7.5095198795        7.2059807557
  H         9.6786904317        8.2104885989        7.2093257669
  H         9.5215440306        6.6801490189        7.2768407951
  O         9.0133510183        7.4954780201        7.4100988052
       6
 i =       48, time =       24.000, E =       -34.4466384357
  H         5.9123770732        7.2795188391        8.1588258703
  H         7.0229177359        7.5383200667        7.1334891300
  O         6.0409685011        7.5096252724        7.2061126527
  H         9.6838786847        8.2034320380        7.2166044340
  H         9.5253008839        6.6862068873        7.2866945844
  O         9.0129566213        7.4955078976        7.4089203844
       6
 i =       49, time =       24.500, E =       -34.4467963138
  H         5.9200622808        7.2771438731        8.1552662448
  H         7.0181159864        7.5401195436        7.1344640350
  O         6.0406130364        7.5096864571        7.2063792857
  H         9.6870556075        8.1950260475        7.2243022107
  H         9.5290784197        6.6913511147        7.2963819106
  O         9.0126702916        7.4956888349        7.4077186549
       6
 i =       50, time =       25.000, E =       -34.4468832397
  H         5.9278307486        7.2751283538        8.1500312713
  H         7.0129452433        7.5420471554        7.1353021231
  O         6.0402864003        7.5097091114        7.2067706678
  H         9.6886060786        8.1855173958        7.2325760363
  H         9.5331248493        6.6952969419        7.3062208334
  O         9.0124585302        7.4960224267        7.4064624434
       6
 i =       51, time =       25.500, E =       -34.4468002674
  H         5.9351778430        7.2733981049        8.1439484780
  H         7.0081244237        7.5440723129        7.1358067137
  O         6.0399802572        7.5096991390        7.2072402216
  H         9.6889195035        8.1759709283        7.2409593942
  H         9.5373148828        6.6975789208        7.3158390711
  O         9.0122995474        7.4964713869        7.4052115941
       6
 i =       52, time =       26.000, E =       -34.4465213552
  H         5.9420221988        7.2717542595        8.1376484552
  H         7.0040656758        7.5462905971        7.1358257825
  O         6.0396714158        7.5096992798        7.2077382297
  H         9.6886047336        8.1669579643        7.2494714946
  H         9.5416347251        6.6980900304        7.3254575939
  O         9.0121582356        7.4969700395        7.4039705697
       6
 i =       53, time =       26.500, E =       -34.4461020134
  H         5.9482731519        7.2699392302        8.1318813202
  H         7.0011401107        7.5487618857        7.1352203119
  O         6.0393389875        7.5096869502        7.2082441876
  H         9.6882826940        8.1592158799        7.2580306773
  H         9.5459808297        6.6969389451        7.3352328940
  O         9.0120052714        7.4974999910        7.4027166317
       6
 i =       54, time =       27.000, E =       -34.4457160615
  H         5.9534446807        7.2678529817        8.1277025949
  H         6.9997681410        7.5513839553        7.1339215360
  O         6.0389922185        7.5096737288        7.2086880745
  H         9.6885769822        8.1538611562        7.2660367402
  H         9.5498583437        6.6944557731        7.3446786432
  O         9.0118274905        7.4979712069        7.4015260677
       6
 i =       55, time =       27.500, E =       -34.4455042195
  H         5.9577579768        7.2652143424        8.1254152080
  H         6.9999425171        7.5543344651        7.1317913860
  O         6.0386107855        7.5096678799        7.2090630660
  H         9.6899606814        8.1510585570        7.2738876041
  H         9.5532028899        6.6908768544        7.3544026968
  O         9.0116060587        7.4983567550        7.4003317917
       6
 i =       56, time =       28.000, E =       -34.4455629179
  H         5.9608568485        7.2621717168        8.1254642949
  H         7.0015110747        7.5573930224        7.1290004476
  O         6.0382318871        7.5097027490        7.2093345134
  H         9.6925373752        8.1511639503        7.2809347044
  H         9.5554465474        6.6869035969        7.3636407396
  O         9.0113651312        7.4985613346        7.3992186186
       6
 i =       57, time =       28.500, E =       -34.4458465132
  H         5.9630003379        7.2585159649        8.1277445354
  H         7.0042572164        7.5607297623        7.1254119827
  O         6.0378471590        7.5097521469        7.2095082859
  H         9.6963721032        8.1540429805        7.2876968046
  H         9.5565175382        6.6827581051        7.3730369297
  O         9.0111108860        7.4986082836        7.3981224850
       6
 i =       58, time =       29.000, E =       -34.4462041771
  H         5.9642588504        7.2543503700        8.1318974841
  H         7.0077484278        7.5642970500        7.1211207349
  O         6.0374787078        7.5098122630        7.2095989663
  H         9.7011175765        8.1592868437        7.2942131134
  H         9.5562066753        6.6788585370        7.3825365758
  O         9.0108791281        7.4984975152        7.3970463350
       6
 i =       59, time =       29.500, E =       -34.4464655254
  H         5.9647636385        7.2498869115        8.1373024517
  H         7.0114495059        7.5680256011        7.1162924180
  O         6.0371502064        7.5098951000        7.2096620547
  H         9.7062039358        8.1661859044        7.3004954390
  H         9.5543951113        6.6755318443        7.3920002050
  O         9.0107150313        7.4982323325        7.3959712986
       6
 i =       60, time =       30.000, E =       -34.4465389957
  H         5.9646543767        7.2455350521        8.1429030962
  H         7.0146778243        7.5716677082        7.1113039242
  O         6.0368985440        7.5099667812        7.2097061137
  H         9.7107484990        8.1736465543        7.3063799111
  H         9.5512026950        6.6731520286        7.4009871896
  O         9.0106639572        7.4978818951        7.3949696109
       6
 i =       61, time =       30.500, E =       -34.4464616497
  H         5.9641197594        7.2415015821        8.1479482524
  H         7.0170197656        7.5751652025        7.1063149787
  O         6.0367368208        7.5100178705        7.2097681706
  H         9.7141824460        8.1809030841        7.3119615624
  H         9.5467819515        6.6717516498        7.4094833536
  O         9.0107531412        7.4974925327        7.3940361998
       6
 i =       62, time =       31.000, E =       -34.4463148276
  H         5.9633042604        7.2377371928        8.1521363552
  H         7.0182980738        7.5786911800        7.1011718396
  O         6.0366624462        7.5100644463        7.2099192749
  H         9.7162489368        8.1877250108        7.3176080000
  H         9.5410455195        6.6711465479        7.4179502318
  O         9.0110088421        7.4970665003        7.3930762299
       6
 i =       63, time =       31.500, E =       -34.4461791103
  H         5.9622776453        7.2341770134        8.1550886559
  H         7.0183208299        7.5823953754        7.0956844218
  O         6.0366826018        7.5100793803        7.2101598003
  H         9.7166189476        8.1939669646        7.3237438919
  H         9.5338697379        6.6711826847        7.4269264828
  O         9.0114600235        7.4966444136        7.3920642920
       6
 i =       64, time =       32.000, E =       -34.4461326544
  H         5.9611892315        7.2310234126        8.1563134647
  H         7.0169038675        7.5861965186        7.0900510090
  O         6.0367985144        7.5100731367        7.2105410257
  H         9.7149502362        8.1990417065        7.3302875244
  H         9.5256078645        6.6715806812        7.4362590703
  O         9.0121068982        7.4962627340        7.3909821815
       6
 i =       65, time =       32.500, E =       -34.4462179707