#     Step Nr.          Time[fs]        Kin.[a.u.]          Temp[K]            Pot.[a.u.]        Cons Qty[a.u.]        UsedTime[s]
         0            0.000000         0.003800178       200.000000000       -34.447892042       -34.444091863         0.000000000
         1            0.500000         0.003818264       200.951814950       -34.447987930       -34.444091408       110.776487728
         2            1.000000         0.003685924       193.986895240       -34.447994448       -34.444088690        22.261124133
         3            1.500000         0.003366537       177.177843619       -34.447958857       -34.444086925        22.243267066
         4            2.000000         0.003216401       169.276321218       -34.447920744       -34.444086763        21.937411626
         5            2.500000         0.003235544       170.283791201       -34.447888577       -34.444088590        22.386843610
         6            3.000000         0.003431929       180.619342729       -34.447839243       -34.444090288        24.175993810
         7            3.500000         0.002946512       155.072318640       -34.447747369       -34.444091141        30.203685096
         8            4.000000         0.002641202       139.004107103       -34.447618742       -34.444090491        27.090733863
         9            4.500000         0.002576740       135.611525687       -34.447455537       -34.444089187        30.834736516
        10            5.000000         0.002491310       131.115406703       -34.447294095       -34.444088444        45.313722677
        11            5.500000         0.002425097       127.630717379       -34.447145523       -34.444087381        45.327967873
        12            6.000000         0.002217267       116.692799065       -34.447021765       -34.444086589        40.836933555
        13            6.500000         0.002448476       128.861122236       -34.446943669       -34.444085785        31.531691794
        14            7.000000         0.002680154       141.054098083       -34.446903849       -34.444085599        40.559213918
        15            7.500000         0.002652692       139.608816323       -34.446903442       -34.444085921        45.427822121
        16            8.000000         0.002850489       150.018708559       -34.446934837       -34.444086942        43.189588044
        17            8.500000         0.002754323       144.957567321       -34.446978376       -34.444088206        31.317596914
        18            9.000000         0.002744247       144.427264996       -34.447031781       -34.444088172        39.644279496
        19            9.500000         0.002789716       146.820273251       -34.447104991       -34.444087974        41.657963290
        20           10.000000         0.002926017       153.993665556       -34.447198739       -34.444087946        31.318625417
        21           10.500000         0.003079355       162.063719712       -34.447307997       -34.444089370        29.610780059
        22           11.000000         0.003371323       177.429712808       -34.447411809       -34.444091392        44.947494531
        23           11.500000         0.003169616       166.814067755       -34.447475551       -34.444093210        45.218812311
        24           12.000000         0.003294592       173.391432472       -34.447480526       -34.444093219        30.759229640
        25           12.500000         0.003255511       171.334621972       -34.447429519       -34.444092057        32.138905314
        26           13.000000         0.003235682       170.291032806       -34.447338553       -34.444089819        32.983726770
        27           13.500000         0.002964356       156.011435190       -34.447254502       -34.444088684        45.574817350
        28           14.000000         0.002933563       154.390807011       -34.447195101       -34.444088477        37.800846683
        29           14.500000         0.002540851       133.722740009       -34.447167303       -34.444089705        32.785889470
        30           15.000000         0.002453627       129.132187432       -34.447168554       -34.444091270        40.264110500
        31           15.500000         0.002548559       134.128379677       -34.447176285       -34.444093347        40.314117395
        32           16.000000         0.002557179       134.582040711       -34.447164145       -34.444094652        45.287247874
        33           16.500000         0.002683745       141.243120166       -34.447102910       -34.444095255        29.979316955
        34           17.000000         0.002846995       149.834790311       -34.446964601       -34.444093160        45.472377043
        35           17.500000         0.002683976       141.255259301       -34.446777467       -34.444088748        45.058569627
        36           18.000000         0.002749807       144.719897127       -34.446595151       -34.444082565        39.240569961
        37           18.500000         0.002557375       134.592346333       -34.446523277       -34.444079086        52.403319274
        38           19.000000         0.002883051       151.732424748       -34.446618115       -34.444080762        44.968759797
        39           19.500000         0.002730591       143.708569143       -34.446853771       -34.444087893        32.056519664
        40           20.000000         0.003047896       160.408033448       -34.447120072       -34.444095895        29.733963807
        41           20.500000         0.003331405       175.328872113       -34.447314105       -34.444101213        34.575329132
        42           21.000000         0.003422008       180.097222610       -34.447340463       -34.444101528        35.229451781
        43           21.500000         0.003389044       178.362388772       -34.447189771       -34.444096267        48.194152371
        44           22.000000         0.003156362       166.116528641       -34.446928868       -34.444088750        47.934125271
        45           22.500000         0.003042367       160.117070611       -34.446672013       -34.444082837        46.155865233
        46           23.000000         0.002914082       153.365546647       -34.446520986       -34.444080043        43.404013785
        47           23.500000         0.002985945       157.147623842       -34.446518294       -34.444081596        42.939127326
        48           24.000000         0.003013738       158.610323813       -34.446638436       -34.444087231        41.059384897
        49           24.500000         0.003301378       173.748557923       -34.446796314       -34.444094255        29.995351138
        50           25.000000         0.003331528       175.335358361       -34.446883240       -34.444100476        29.402544788
        51           25.500000         0.003030090       159.470945291       -34.446800267       -34.444102554        45.568602302
        52           26.000000         0.002882084       151.681487222       -34.446521355       -34.444098961        42.061489900
        53           26.500000         0.002707323       142.484012710       -34.446102013       -34.444089443        45.603928195
        54           27.000000         0.002124611       111.816388342       -34.445716061       -34.444079207        45.140741536
        55           27.500000         0.001761497        92.706005328       -34.445504220       -34.444073673        45.352234274
        56           28.000000         0.001967252       103.534729911       -34.445562918       -34.444076850        45.048857889
        57           28.500000         0.002056995       108.257804478       -34.445846513       -34.444086622        29.730678485
        58           29.000000         0.002418805       127.299565832       -34.446204177       -34.444097473        31.737177182
        59           29.500000         0.002709133       142.579253132       -34.446465525       -34.444103952        37.976469235
        60           30.000000         0.002353336       123.853988881       -34.446538996       -34.444103554        45.235317657
        61           30.500000         0.002246948       118.254888399       -34.446461650       -34.444098728        38.026535473
        62           31.000000         0.002104879       110.777907372       -34.446314828       -34.444092757        39.823452986
        63           31.500000         0.002250343       118.433526416       -34.446179110       -34.444087030        45.541555741
        64           32.000000         0.002550174       134.213368774       -34.446132654       -34.444084466        37.980217842
        65           32.500000         0.002795925       147.147041698       -34.446217971       -34.444085556        35.867952986
        66           33.000000         0.002701860       142.196466775       -34.446414610       -34.444090814        45.424904078
        67           33.500000         0.003056878       160.880746692       -34.446640251       -34.444097956        33.571818102
        68           34.000000         0.003123445       164.384120579       -34.446784382       -34.444105039        42.641950861
        69           34.500000         0.003409699       179.449398497       -34.446745166       -34.444108224        45.717139542
        70           35.000000         0.003119919       164.198528257       -34.446445532       -34.444104668        45.153579032
        71           35.500000         0.002817752       148.295782292       -34.445938413       -34.444093369        44.878764356
        72           36.000000         0.002648995       139.414230391       -34.445372119       -34.444079416        45.152553461
        73           36.500000         0.002008748       105.718605648       -34.444976051       -34.444070324        45.006803125
        74           37.000000         0.001792430        94.333986198       -34.444903550       -34.444072549        34.216961578
        75           37.500000         0.002108481       110.967451523       -34.445117784       -34.444083539        36.644751748
        76           38.000000         0.002312320       121.695364072       -34.445462598       -34.444097430        38.527759880
        77           38.500000         0.002594108       136.525605840       -34.445708099       -34.444105216        45.185799417
        78           39.000000         0.002692500       141.703854122       -34.445742817       -34.444104505        37.649305856
        79           39.500000         0.002625409       138.172915221       -34.445561361       -34.444097241        34.079535506
        80           40.000000         0.002197330       115.643530189       -34.445267817       -34.444086294        29.093339303
        81           40.500000         0.002093981       110.204377274       -34.445041026       -34.444077527        32.034932408
        82           41.000000         0.002263739       119.138584643       -34.445006578       -34.444074241        31.175270825
        83           41.500000         0.002572738       135.400894577       -34.445225689       -34.444077273        34.352560187
        84           42.000000         0.003130059       164.732230459       -34.445647090       -34.444086488        42.242243282
        85           42.500000         0.003751732       197.450316780       -34.446130352       -34.444099491        45.055745497
        86           43.000000         0.004223133       222.259742945       -34.446458485       -34.444110276        36.927626118
        87           43.500000         0.004263658       224.392535322       -34.446460877       -34.444113351        30.627682200
        88           44.000000         0.003804232       200.213350381       -34.446078902       -34.444105487        24.491439499
        89           44.500000         0.003237450       170.384104122       -34.445468165       -34.444090418        38.652136412
        90           45.000000         0.002861343       150.589933968       -34.444830035       -34.444074727        45.757700658
        91           45.500000         0.002189660       115.239856464       -34.444415792       -34.444067988        42.163799310
        92           46.000000         0.002029647       106.818518334       -34.444346703       -34.444073429        30.111349171
        93           46.500000         0.002312221       121.690102945       -34.444532213       -34.444086887        45.555966277
        94           47.000000         0.002413506       127.020646732       -34.444763588       -34.444098763        37.295048077
        95           47.500000         0.002439197       128.372761430       -34.444873226       -34.444103866        39.695892529
        96           48.000000         0.002363492       124.388478711       -34.444785293       -34.444101214        49.784765905
        97           48.500000         0.002045756       107.666305605       -34.444547757       -34.444092866        37.661937695
        98           49.000000         0.001743279        91.747229427       -34.444290590       -34.444083291        44.109100036
        99           49.500000         0.001666439        87.703177014       -34.444153954       -34.444076410        35.542937704
       100           50.000000         0.001974533       103.917929821       -34.444253566       -34.444074368        38.550322027
       101           50.500000         0.002639382       138.908303535       -34.444638704       -34.444078591        35.114355501
       102           51.000000         0.003856928       202.986704450       -34.445239087       -34.444089042        33.798746877
       103           51.500000         0.004500866       236.876571056       -34.445885998       -34.444101681        40.444061860
       104           52.000000         0.004997722       263.025659649       -34.446332524       -34.444111199        38.373240596
       105           52.500000         0.005343583       281.228026958       -34.446433382       -34.444112900        42.770582313
       106           53.000000         0.004979197       262.050712949       -34.446155740       -34.444103437        44.931173715
       107           53.500000         0.004515566       237.650220493       -34.445642278       -34.444086997        41.232560839
       108           54.000000         0.003762618       198.023239618       -34.445182301       -34.444074138        52.373617700
       109           54.500000         0.003487198       183.528116978       -34.444970482       -34.444071979        31.542120309
       110           55.000000         0.003623301       190.691098698       -34.445024588       -34.444081224        31.915494226
       111           55.500000         0.003619050       190.467351621       -34.445207585       -34.444094093        45.882991816
       112           56.000000         0.003694315       194.428515509       -34.445342610       -34.444103597        43.578669121
       113           56.500000         0.003538451       186.225500336       -34.445275139       -34.444104705        37.297589575
       114           57.000000         0.003008408       158.329848653       -34.445004845       -34.444098511        35.726399632
       115           57.500000         0.002399553       126.286341138       -34.444645127       -34.444089095        45.189145048
       116           58.000000         0.001966122       103.475227261       -34.444386495       -34.444081518        45.275794486
       117           58.500000         0.001843354        97.014087172       -34.444325566       -34.444078102        45.044490996
       118           59.000000         0.001805828        95.039108949       -34.444514281       -34.444080450        41.496751901
       119           59.500000         0.002088525       109.917196150       -34.444917384       -34.444088005        45.910169218
       120           60.000000         0.002925365       153.959357329       -34.445428657       -34.444098812        45.517193587
       121           60.500000         0.003347443       176.172949207       -34.445871559       -34.444107910        30.290654855
       122           61.000000         0.003650073       192.100103070       -34.446112113       -34.444111373        26.471388042
       123           61.500000         0.003608731       189.924299045       -34.446080276       -34.444106493        33.365395419
       124           62.000000         0.003196504       168.229151431       -34.445862305       -34.444096111        45.002413706
       125           62.500000         0.002698370       142.012828669       -34.445631658       -34.444087205        40.031599622
       126           63.000000         0.002502755       131.717768784       -34.445535862       -34.444085152        45.687444450
       127           63.500000         0.002812936       148.042310511       -34.445604491       -34.444091107        45.315265283
       128           64.000000         0.002954794       155.508188392       -34.445746808       -34.444100843        46.808076755
       129           64.500000         0.003217504       169.334363857       -34.445806573       -34.444108348        38.347815755
       130           65.000000         0.002823063       148.575295208       -34.445667431       -34.444109273        30.901058438
       131           65.500000         0.002956605       155.603471142       -34.445304241       -34.444103831        29.263054117
       132           66.000000         0.002423120       127.526664714       -34.444755817       -34.444093829        32.863202006
       133           66.500000         0.001968014       103.574816432       -34.444206124       -34.444084128        43.953517350
       134           67.000000         0.001687514        88.812341532       -34.443796853       -34.444077106        30.846811587
       135           67.500000         0.001627860        85.672807924       -34.443608568       -34.444074738        40.162988634
       136           68.000000         0.001819857        95.777442517       -34.443695905       -34.444078321        35.370956181
       137           68.500000         0.002041511       107.442912447       -34.444009976       -34.444086317        45.206034302
       138           69.000000         0.002541459       133.754730624       -34.444421260       -34.444096106        40.574491486
       139           69.500000         0.002839978       149.465504285       -34.444770514       -34.444103686        39.686109848
       140           70.000000         0.002918534       153.599865662       -34.444961878       -34.444105131        31.247672427
       141           70.500000         0.003119739       164.189055517       -34.444989308       -34.444099885        44.977990059
       142           71.000000         0.003041580       160.075621084       -34.444923812       -34.444090728        29.169280179
       143           71.500000         0.003202112       168.524277311       -34.444899779       -34.444083025        34.820164961
       144           72.000000         0.003679442       193.645740563       -34.445031709       -34.444082867        38.649027357
       145           72.500000         0.004155585       218.704717428       -34.445325356       -34.444091218        44.899835101
       146           73.000000         0.004332862       228.034675193       -34.445648751       -34.444102010        32.594905037
       147           73.500000         0.004183105       220.153063802       -34.445830503       -34.444109217        29.070263494
       148           74.000000         0.003958436       208.328948594       -34.445774393       -34.444110526        32.844246945
       149           74.500000         0.003718085       195.679522330       -34.445485373       -34.444105915        42.734343011
       150           75.000000         0.003156521       166.124905081       -34.445036911       -34.444098519        38.779560321
       151           75.500000         0.002674095       140.735208879       -34.444552211       -34.444090724        51.433641455
       152           76.000000         0.002326806       122.457736380       -34.444154698       -34.444085728        37.661855684
       153           76.500000         0.002199691       115.767767323       -34.443900056       -34.444084171        44.584371424
       154           77.000000         0.002545047       133.943538316       -34.443815911       -34.444087439        35.331415041
       155           77.500000         0.002793784       147.034335035       -34.443850015       -34.444093669        40.860593084
       156           78.000000         0.002904549       152.863845669       -34.443888156       -34.444100632        38.938295045
       157           78.500000         0.002878399       151.487576680       -34.443827750       -34.444102551        52.430863931
       158           79.000000         0.002801977       147.465561989       -34.443646041       -34.444098592        45.721760857
       159           79.500000         0.002509646       132.080428278       -34.443401985       -34.444088929        43.063166973
       160           80.000000         0.002349890       123.672616735       -34.443234610       -34.444080431        45.848415942
       161           80.500000         0.002316466       121.913530340       -34.443290987       -34.444079339        38.991089572
       162           81.000000         0.002550196       134.214563869       -34.443591833       -34.444088086        37.066155479
       163           81.500000         0.002788612       146.762138804       -34.443995672       -34.444099769        50.510139321
       164           82.000000         0.002642976       139.097446221       -34.444340507       -34.444108975        45.892999253
       165           82.500000         0.002769300       145.745799267       -34.444525208       -34.444111800        32.167752384
       166           83.000000         0.002763346       145.432446610       -34.444520336       -34.444109985        32.993809546
       167           83.500000         0.002806811       147.719940967       -34.444347250       -34.444104485        40.195420366
       168           84.000000         0.002594200       136.530427041       -34.444080601       -34.444099238        44.477617954
       169           84.500000         0.002665105       140.262099312       -34.443809641       -34.444094722        28.906206132
       170           85.000000         0.002439294       128.377877651       -34.443578547       -34.444093041        29.069394657
       171           85.500000         0.002185511       115.021470220       -34.443437643       -34.444093442        30.280757190
       172           86.000000         0.001882729        99.086349139       -34.443387034       -34.444097411        31.611663882
       173           86.500000         0.001943808       102.300907107       -34.443378999       -34.444102489        31.882983133
       174           87.000000         0.001988599       104.658214788       -34.443335097       -34.444107613        29.004943741
       175           87.500000         0.001659110        87.317459374       -34.443197730       -34.444108476        39.944918690
       176           88.000000         0.001273209        67.007852456       -34.442979196       -34.444105453        45.238146217
       177           88.500000         0.001117322        58.803656860       -34.442747711       -34.444098863        45.397386427
       178           89.000000         0.000908568        47.817116020       -34.442609910       -34.444093994        35.410619447
       179           89.500000         0.001310467        68.968720577       -34.442649061       -34.444093105        33.737782780
       180           90.000000         0.001532572        80.657876376       -34.442881854       -34.444098646        40.406472376
       181           90.500000         0.001983178       104.372870253       -34.443222860       -34.444105501        39.725376090
       182           91.000000         0.002189731       115.243583756       -34.443547338       -34.444109837        41.989954697
       183           91.500000         0.002585673       136.081657347       -34.443805150       -34.444110557        38.032136616
       184           92.000000         0.002877066       151.417412715       -34.443979514       -34.444108970        40.102006325
       185           92.500000         0.003043189       160.160347516       -34.444088846       -34.444106874        45.120998962
       186           93.000000         0.003012452       158.542639411       -34.444154189       -34.444105406        41.614631002
       187           93.500000         0.003145700       165.555358905       -34.444201893       -34.444104521        29.681773269
       188           94.000000         0.003312219       174.319105477       -34.444242695       -34.444104157        34.026232284
       189           94.500000         0.003283180       172.790814288       -34.444278826       -34.444104671        44.879170126
       190           95.000000         0.003057081       160.891424810       -34.444302027       -34.444106521        45.359061233
       191           95.500000         0.003034505       159.703296351       -34.444295254       -34.444109149        40.868885946
       192           96.000000         0.002714791       142.877052047       -34.444229010       -34.444111728        29.489010615
       193           96.500000         0.002415213       127.110511040       -34.444106396       -34.444111270        31.869945911
       194           97.000000         0.002142661       112.766357223       -34.443944645       -34.444108800        37.231103268
       195           97.500000         0.001950364       102.645922102       -34.443808790       -34.444104613        33.990476978
       196           98.000000         0.002285689       120.293766457       -34.443755761       -34.444102840        31.126256567
       197           98.500000         0.002359421       124.174213543       -34.443811421       -34.444104269        42.181490084
       198           99.000000         0.002377940       125.148878289       -34.443949358       -34.444108076        41.316913090
       199           99.500000         0.002470174       130.003050803       -34.444119505       -34.444111911        45.191783183
       200          100.000000         0.002687114       141.420418626       -34.444286051       -34.444112207        31.863451769
       201          100.500000         0.003076306       161.903255420       -34.444450874       -34.444110745        30.467450191
       202          101.000000         0.002864140       150.737130593       -34.444635396       -34.444108754        31.842570403
       203          101.500000         0.002933170       154.370109642       -34.444863494       -34.444110050        39.536730839
       204          102.000000         0.003009821       158.404193040       -34.445140982       -34.444112888        45.467655268
       205          102.500000         0.003375596       177.654612084       -34.445427216       -34.444116827        35.213435071
       206          103.000000         0.003567194       187.738222160       -34.445675752       -34.444119220        45.445827538
       207          103.500000         0.003643426       191.750268651       -34.445858309       -34.444120448        45.415902721
       208          104.000000         0.003633156       191.209772011       -34.445955940       -34.444120760        32.400931327
       209          104.500000         0.003657884       192.511151565       -34.445969763       -34.444121539        38.330691549
       210          105.000000         0.003774358       198.641116050       -34.445898498       -34.444120770        45.435460026
       211          105.500000         0.003833410       201.748968432       -34.445757309       -34.444118660        45.336386967
       212          106.000000         0.003921053       206.361506166       -34.445571105       -34.444115382        34.349916668
       213          106.500000         0.003591031       188.992747176       -34.445396975       -34.444112561        44.285869228
       214          107.000000         0.003596156       189.262483583       -34.445280196       -34.444112333        29.616311460
       215          107.500000         0.003737902       196.722451204       -34.445224774       -34.444115444        45.024542286
       216          108.000000         0.003902049       205.361374050       -34.445181362       -34.444119777        45.224973892
       217          108.500000         0.003711047       195.309085426       -34.445088530       -34.444121364        33.573979441
       218          109.000000         0.003615286       190.269301583       -34.444921238       -34.444117984        45.193968910
       219          109.500000         0.003370069       177.363705357       -34.444735664       -34.444111480        45.672190550
       220          110.000000         0.003081539       162.178650655       -34.444643821       -34.444106822        31.646488514
       221          110.500000         0.003203000       168.571020973       -34.444720882       -34.444107106        33.905208222
       222          111.000000         0.003567447       187.751577700       -34.444968180       -34.444111867        45.803104503
       223          111.500000         0.004234572       222.861758063       -34.445320761       -34.444118140        44.725857997
       224          112.000000         0.004622511       243.278612487       -34.445671385       -34.444122739        29.508169567
       225          112.500000         0.004775626       251.336928284       -34.445929582       -34.444124717        35.938946314
       226          113.000000         0.004855796       255.556219701       -34.446090456       -34.444124898        31.244113540
       227          113.500000         0.004813987       253.355853909       -34.446150009       -34.444124024        32.295975011