       3
 i =        1, E =       -17.1787459688
  H         7.6527222758        8.2647953304        7.2840744535
  H         7.6290249329        6.7360987193        7.2368168616
  O         7.3391137422        7.4893232142        7.7737559668
       3
 i =        2, E =       -17.1788169400
  H         7.6515452799        8.2713621776        7.2863806684
  H         7.6272837930        6.7309181368        7.2399846527
  O         7.3290232783        7.4908763442        7.7718972450
       3
 i =        3, E =       -17.1788425014
  H         7.6497541591        8.2725957152        7.2890544654
  H         7.6247884459        6.7319863593        7.2445235247
  O         7.3166469561        7.4931571659        7.7715129731
       3
 i =        4, E =       -17.1788628480
  H         7.6472542271        8.2737093114        7.2922801671
  H         7.6213514396        6.7337516151        7.2499628185
  O         7.3126211389        7.4956485175        7.7734376450
       3
 i =        5, E =       -17.1788819887
  H         7.6424705730        8.2761538843        7.2985320658
  H         7.6146548856        6.7370839378        7.2606746441
  O         7.3115647713        7.5002374280        7.7808644819
       3
 i =        6, E =       -17.1788838977
  H         7.6425042768        8.2768054743        7.2985949083
  H         7.6147228531        6.7363140544        7.2607911849
  O         7.3119154496        7.5000428455        7.7813112916
       3
 i =        7, E =       -17.1788838977
  H         7.6425042768        8.2768054743        7.2985949083
  H         7.6147228531        6.7363140544        7.2607911849
  O         7.3119154496        7.5000428455        7.7813112916
