#     Step Nr.          Time[fs]        Kin.[a.u.]          Temp[K]            Pot.[a.u.]        Cons Qty[a.u.]        UsedTime[s]
         0            0.000000         0.001425067       300.000000000       -17.219267542       -17.217842475         0.000000000
         1            0.500000         0.001486046       312.837014541       -17.219434325       -17.217844364       155.200527401
         2            1.000000         0.001344907       283.125122584       -17.219505353       -17.217844641        62.867547834
         3            1.500000         0.001363366       287.010877077       -17.219492396       -17.217843826        75.289554987
         4            2.000000         0.001150552       242.210055070       -17.219418469       -17.217842575        59.552907549
         5            2.500000         0.001001791       210.893461778       -17.219308972       -17.217841306        59.146277277
         6            3.000000         0.001104557       232.527408668       -17.219159017       -17.217839965        62.932232614
         7            3.500000         0.000905624       190.648752893       -17.218997048       -17.217838856        65.492890356
         8            4.000000         0.000852326       179.428528084       -17.218840415       -17.217838263        75.904295035
         9            4.500000         0.000655571       138.008399889       -17.218706926       -17.217838279       106.281910845
        10            5.000000         0.000464166        97.714669775       -17.218573886       -17.217838523        62.113227159
        11            5.500000         0.000366455        77.144887727       -17.218463207       -17.217838411        51.220096697
        12            6.000000         0.000311535        65.583202383       -17.218379448       -17.217837861        79.672110814
        13            6.500000         0.000264422        55.665264454       -17.218310091       -17.217836648       112.317247362
        14            7.000000         0.000179004        37.683206169       -17.218281409       -17.217835275        60.022918747
        15            7.500000         0.000238082        50.120194191       -17.218320676       -17.217834913        77.195521431
        16            8.000000         0.000331036        69.688610004       -17.218446244       -17.217835920        72.695520529
        17            8.500000         0.000454027        95.580187562       -17.218616647       -17.217837712        59.741511155
        18            9.000000         0.000661762       139.311846757       -17.218819316       -17.217839874        53.190378200
        19            9.500000         0.000911796       191.948133344       -17.219034598       -17.217841846        70.758012303
        20           10.000000         0.001155634       243.279920698       -17.219215112       -17.217843017        64.250859732
