       3
 i =        0, time =        0.000, E =       -17.2192675424
  H         7.6494840704        8.2713985101        7.2900994549
  H         7.6256783471        6.7286014899        7.2418090373
  O         7.3505159296        7.4890220414        7.7581909628
       3
 i =        1, time =        0.500, E =       -17.2194343249
  H         7.6524161985        8.2657547486        7.2847382554
  H         7.6307421792        6.7290821112        7.2331476792
  O         7.3500030743        7.4893469192        7.7590786391
       3
 i =        2, time =        1.000, E =       -17.2195053526
  H         7.6556428195        8.2613451283        7.2789428253
  H         7.6356626765        6.7294357467        7.2247246758
  O         7.3494798819        7.4896023100        7.7599787284
       3
 i =        3, time =        1.500, E =       -17.2194923961
  H         7.6593307993        8.2578658210        7.2724093663
  H         7.6405375632        6.7301587989        7.2164005760
  O         7.3489297197        7.4897760702        7.7609191204
       3
 i =        4, time =        2.000, E =       -17.2194184694
  H         7.6630764700        8.2554683636        7.2658399461
  H         7.6447642179        6.7315699464        7.2092281802
  O         7.3484159496        7.4898385845        7.7617892334
       3
 i =        5, time =        2.500, E =       -17.2193089717
  H         7.6669551202        8.2537781766        7.2590839309
  H         7.6484376569        6.7339883499        7.2030630442
  O         7.3479279392        7.4897933320        7.7626076390
       3
 i =        6, time =        3.000, E =       -17.2191590171
  H         7.6713167104        8.2523338807        7.2515139954
  H         7.6518853901        6.7379403236        7.1973736157
  O         7.3474230647        7.4896362247        7.7634473187
       3
 i =        7, time =        3.500, E =       -17.2189970479
  H         7.6753948874        8.2510302701        7.2444396410
  H         7.6545456832        6.7429759706        7.1930984311
  O         7.3469850056        7.4894022667        7.7641666129
       3
 i =        8, time =        4.000, E =       -17.2188404149
  H         7.6789908187        8.2495852772        7.2381856743
  H         7.6563950103        6.7489358208        7.1902688032
  O         7.3466278866        7.4891192657        7.7647430574
       3
 i =        9, time =        4.500, E =       -17.2187069258
  H         7.6817912233        8.2478562881        7.2332813332
  H         7.6574020595        6.7552594700        7.1889060971
  O         7.3463735540        7.4888314894        7.7651419480
       3
 i =       10, time =        5.000, E =       -17.2185738864
  H         7.6840430931        8.2454705473        7.2292808662
  H         7.6577738826        6.7624505696        7.1886839034
  O         7.3461935581        7.4885306429        7.7654119369
       3
 i =       11, time =        5.500, E =       -17.2184632068
  H         7.6852400308        8.2428693918        7.2270787669
  H         7.6575710064        6.7686513525        7.1893908828
  O         7.3461161052        7.4883059186        7.7655099948
       3
 i =       12, time =        6.000, E =       -17.2183794482
  H         7.6854858093        8.2400522408        7.2264967187
  H         7.6569747735        6.7736915797        7.1907058673
  O         7.3461233525        7.4881679937        7.7654676280
       3
 i =       13, time =        6.500, E =       -17.2183100914
  H         7.6848189759        8.2366318712        7.2274460401
  H         7.6560057745        6.7780395305        7.1926205120
  O         7.3462116604        7.4881116851        7.7652909884
       3
 i =       14, time =        7.000, E =       -17.2182814085
  H         7.6834215775        8.2335580105        7.2296690453
  H         7.6549899908        6.7803507063        7.1944976564
  O         7.3463491076        7.4881617895        7.7650364869
       3
 i =       15, time =        7.500, E =       -17.2183206761
  H         7.6816260158        8.2314413732        7.2326305016
  H         7.6541363853        6.7802830923        7.1959589733
  O         7.3465016168        7.4883013350        7.7647617104
       3
 i =       16, time =        8.000, E =       -17.2184462436
  H         7.6790659059        8.2300133210        7.2369435292
  H         7.6532388295        6.7777200070        7.1973514730
  O         7.3467052407        7.4885545839        7.7644061921
       3
 i =       17, time =        8.500, E =       -17.2186166471
  H         7.6764895229        8.2299612911        7.2413637140
  H         7.6524783630        6.7733083612        7.1984018839
  O         7.3469014643        7.4888374361        7.7640655739
       3
 i =       18, time =        9.000, E =       -17.2188193157
  H         7.6738889467        8.2314608398        7.2459147372
  H         7.6517205148        6.7671590450        7.1993473644
  O         7.3470992354        7.4891318527        7.7637234204
       3
 i =       19, time =        9.500, E =       -17.2190345979
  H         7.6711800343        8.2348148468        7.2507583763
  H         7.6507818997        6.7591852462        7.2004975634
  O         7.3473154020        7.4894242196        7.7633500275
       3
 i =       20, time =       10.000, E =       -17.2192151118
  H         7.6685841284        8.2399280821        7.2555092705
  H         7.6495583054        6.7502976310        7.2020839376
  O         7.3475426074        7.4896631533        7.7629550856
