#     Step Nr.          Time[fs]        Kin.[a.u.]          Temp[K]            Pot.[a.u.]        Cons Qty[a.u.]        UsedTime[s]
         0            0.000000         0.001425067       300.000000000       -17.219267542       -17.217842475         0.000000000
         1            0.500000         0.001486046       312.837014541       -17.219434325       -17.217844364       155.200527401
         2            1.000000         0.001344907       283.125122584       -17.219505353       -17.217844641        62.867547834
         3            1.500000         0.001363366       287.010877077       -17.219492396       -17.217843826        75.289554987
         4            2.000000         0.001150552       242.210055070       -17.219418469       -17.217842575        59.552907549
         5            2.500000         0.001001791       210.893461778       -17.219308972       -17.217841306        59.146277277
         6            3.000000         0.001104557       232.527408668       -17.219159017       -17.217839965        62.932232614
         7            3.500000         0.000905624       190.648752893       -17.218997048       -17.217838856        65.492890356
         8            4.000000         0.000852326       179.428528084       -17.218840415       -17.217838263        75.904295035
         9            4.500000         0.000655571       138.008399889       -17.218706926       -17.217838279       106.281910845
        10            5.000000         0.000464166        97.714669775       -17.218573886       -17.217838523        62.113227159
        11            5.500000         0.000366455        77.144887727       -17.218463207       -17.217838411        51.220096697
        12            6.000000         0.000311535        65.583202383       -17.218379448       -17.217837861        79.672110814
        13            6.500000         0.000264422        55.665264454       -17.218310091       -17.217836648       112.317247362
        14            7.000000         0.000179004        37.683206169       -17.218281409       -17.217835275        60.022918747
        15            7.500000         0.000238082        50.120194191       -17.218320676       -17.217834913        77.195521431
        16            8.000000         0.000331036        69.688610004       -17.218446244       -17.217835920        72.695520529
        17            8.500000         0.000454027        95.580187562       -17.218616647       -17.217837712        59.741511155
        18            9.000000         0.000661762       139.311846757       -17.218819316       -17.217839874        53.190378200
        19            9.500000         0.000911796       191.948133344       -17.219034598       -17.217841846        70.758012303
        20           10.000000         0.001155634       243.279920698       -17.219215112       -17.217843017        64.250859732
        21           10.500000         0.001117831       235.321702598       -17.219337730       -17.217843288        82.796729279
        22           11.000000         0.001062153       223.600753251       -17.219394033       -17.217842984        54.322702482
        23           11.500000         0.001257641       264.753996838       -17.219406951       -17.217842429        53.398117510
        24           12.000000         0.001384198       291.396409614       -17.219381388       -17.217841773        79.358730363
        25           12.500000         0.001293392       272.280223404       -17.219326468       -17.217841282        68.743416030
        26           13.000000         0.000983669       207.078472395       -17.219253865       -17.217841199        63.404466076
        27           13.500000         0.000817980       172.198212917       -17.219176632       -17.217841529       103.671666175
        28           14.000000         0.000809049       170.318029539       -17.219085122       -17.217841989        61.915196033
        29           14.500000         0.000627418       132.081844955       -17.218973915       -17.217841975        59.065299572
        30           15.000000         0.000542111       114.123198376       -17.218831979       -17.217841054        65.451276739
        31           15.500000         0.000299970        63.148535709       -17.218691651       -17.217839543        63.807405725
        32           16.000000         0.000146941        30.933483240       -17.218613891       -17.217838801        71.099810586
        33           16.500000         0.000200241        42.153973277       -17.218566779       -17.217838831        57.136174621
        34           17.000000         0.000194654        40.977883783       -17.218562436       -17.217839157        68.552621541
        35           17.500000         0.000194150        40.871680216       -17.218599027       -17.217839558        48.559506964
        36           18.000000         0.000292831        61.645817091       -17.218673897       -17.217839850        61.894121258
        37           18.500000         0.000308933        65.035406021       -17.218773532       -17.217840170        40.310375681
        38           19.000000         0.000434907        91.555159583       -17.218886954       -17.217841002        61.240993357
        39           19.500000         0.000734497       154.623601207       -17.219043719       -17.217842436        74.083238165
        40           20.000000         0.000817936       172.188982707       -17.219181748       -17.217843495        75.318239609
        41           20.500000         0.001050237       221.092067122       -17.219290180       -17.217843904        67.649606981
        42           21.000000         0.001079850       227.326084473       -17.219363112       -17.217843611        55.135565397
        43           21.500000         0.001414742       297.826474691       -17.219393912       -17.217842832        70.139405752
        44           22.000000         0.001597210       336.238995569       -17.219380915       -17.217841903        75.873860698
        45           22.500000         0.001645447       346.393633318       -17.219321897       -17.217841098        76.534926592
        46           23.000000         0.001756696       369.813309833       -17.219210276       -17.217840415        43.792657148
        47           23.500000         0.001463360       308.061378710       -17.219057421       -17.217839833        67.927750977
        48           24.000000         0.001487805       313.207466001       -17.218874468       -17.217839359        50.318355406
        49           24.500000         0.001273853       268.167028731       -17.218645890       -17.217838790        82.405994517
        50           25.000000         0.001002738       211.092925205       -17.218392960       -17.217837898        65.261354279
        51           25.500000         0.000825089       173.694829215       -17.218084759       -17.217836056        63.543315790
        52           26.000000         0.000789373       166.176011550       -17.217742343       -17.217832646        66.289233963
        53           26.500000         0.000419102        88.227954744       -17.217357285       -17.217827143        74.191988101
        54           27.000000         0.000246468        51.885655312       -17.217073751       -17.217822180        64.597679722
        55           27.500000         0.000156475        32.940630052       -17.216966597       -17.217820380        78.662071681
        56           28.000000         0.000309576        65.170740399       -17.217053481       -17.217822500        53.389244603
        57           28.500000         0.000478785       100.792072343       -17.217304090       -17.217827257        72.794859466
        58           29.000000         0.000746688       157.190182404       -17.217623509       -17.217831905        83.211581756
        59           29.500000         0.001088388       229.123544283       -17.217961125       -17.217835005        45.467170777
        60           30.000000         0.001330648       280.123180847       -17.218257839       -17.217836038        69.012147327
        61           30.500000         0.001566615       329.798141545       -17.218512480       -17.217835620        59.340248355
        62           31.000000         0.001725111       363.164314304       -17.218712417       -17.217834867        50.783253925
        63           31.500000         0.001685297       354.782785166       -17.218895583       -17.217834529        71.102944978
        64           32.000000         0.001838875       387.113386595       -17.219055260       -17.217835070        65.312966839
        65           32.500000         0.002031503       427.664833815       -17.219210396       -17.217836693        51.818163865
        66           33.000000         0.002343643       493.375270065       -17.219336270       -17.217839138        51.592219349
        67           33.500000         0.002678031       563.769522588       -17.219376050       -17.217841562        93.244668406
        68           34.000000         0.002988606       629.150612300       -17.219264099       -17.217842783        71.751582261
        69           34.500000         0.002244714       472.549092198       -17.218981385       -17.217840987        86.650081323
        70           35.000000         0.001674878       352.589272766       -17.218583504       -17.217836309        49.366554531
        71           35.500000         0.001312093       276.217190135       -17.218110891       -17.217829751        65.071306774
        72           36.000000         0.000841504       177.150476307       -17.217709147       -17.217824815        97.657896654
        73           36.500000         0.000503361       105.965790541       -17.217453417       -17.217823910        61.510023474
        74           37.000000         0.000372566        78.431192757       -17.217357141       -17.217826840        56.205172012
        75           37.500000         0.000503603       106.016634334       -17.217367007       -17.217831258        66.258771177
        76           38.000000         0.000435625        91.706182878       -17.217417470       -17.217834126        46.126311287
        77           38.500000         0.000533261       112.260224652       -17.217465276       -17.217834132        63.868917779
        78           39.000000         0.000660316       139.007326147       -17.217489939       -17.217830971       101.749861014
        79           39.500000         0.000744573       156.744930396       -17.217519385       -17.217826538        69.222953865
        80           40.000000         0.000687389       144.706602572       -17.217619552       -17.217823480        58.844962317
        81           40.500000         0.001034124       217.700080498       -17.217845677       -17.217823107        68.956147091
        82           41.000000         0.001461533       307.676762660       -17.218204492       -17.217825951        68.193727463
        83           41.500000         0.002032582       427.891961871       -17.218661145       -17.217831611        80.649905154
        84           42.000000         0.002674336       562.991685981       -17.219122426       -17.217838554        71.102679774
        85           42.500000         0.003182565       669.982247859       -17.219465883       -17.217844188        75.905024370
        86           43.000000         0.003075589       647.462084299       -17.219571458       -17.217845469        58.703166474
        87           43.500000         0.003173512       668.076505854       -17.219432285       -17.217841664       100.344956183
        88           44.000000         0.002947528       620.503158411       -17.219095794       -17.217834196        48.283239210
        89           44.500000         0.002265738       476.975050728       -17.218677974       -17.217827003        55.746435117
        90           45.000000         0.001853183       390.125394298       -17.218290735       -17.217823817        73.301316284
        91           45.500000         0.001450558       305.366230027       -17.218021241       -17.217825504        69.603276007
        92           46.000000         0.001246572       262.423972410       -17.217820983       -17.217829632        44.484913759
        93           46.500000         0.001100238       231.618075865       -17.217626538       -17.217832490        61.145171306
        94           47.000000         0.001035473       217.984013002       -17.217375775       -17.217831675        75.879555673
        95           47.500000         0.000798602       168.118815624       -17.217049932       -17.217826788       116.764103185
        96           48.000000         0.000335080        70.539935144       -17.216731212       -17.217820270        60.800539161
        97           48.500000         0.000172699        36.355909924       -17.216572154       -17.217815947        59.011651147
        98           49.000000         0.000179280        37.741385885       -17.216613813       -17.217814557        46.367933830
        99           49.500000         0.000482572       101.589393138       -17.216882993       -17.217816576        77.865053266
       100           50.000000         0.000859623       180.964836296       -17.217329231       -17.217821565        84.064944358
       101           50.500000         0.001562256       328.880581352       -17.217898056       -17.217828714        57.477264367
       102           51.000000         0.002282769       480.560370209       -17.218482375       -17.217836214        57.556826610
       103           51.500000         0.002873777       604.977259866       -17.218941199       -17.217841201        49.853314273
       104           52.000000         0.003259691       686.218416484       -17.219195168       -17.217841371        53.878458113
       105           52.500000         0.002722779       573.189688016       -17.219229621       -17.217836677        57.794406363
       106           53.000000         0.002980014       627.341896459       -17.219139844       -17.217830068        47.909969340
       107           53.500000         0.002806657       590.847505144       -17.219004097       -17.217825386        85.665185413
       108           54.000000         0.002498499       525.975153467       -17.218908111       -17.217826276        69.169037634
       109           54.500000         0.002433880       512.371652672       -17.218840342       -17.217831576        94.937040482
       110           55.000000         0.002436889       513.005113791       -17.218718186       -17.217837054        52.510088694
       111           55.500000         0.002203249       463.820130469       -17.218454660       -17.217838514        60.940564177
       112           56.000000         0.001964248       413.506485116       -17.218017372       -17.217834564        61.612854593
       113           56.500000         0.001215980       255.983706355       -17.217473142       -17.217827055        60.270719496
       114           57.000000         0.000758246       159.623320188       -17.216936753       -17.217819067        70.443389061
       115           57.500000         0.000204359        43.020920380       -17.216535912       -17.217813408        71.877663587
       116           58.000000         0.000047508        10.001186947       -17.216440506       -17.217812831        69.807558127
       117           58.500000         0.000156356        32.915562606       -17.216583232       -17.217816319        67.916864979
       118           59.000000         0.000433109        91.176502676       -17.216915972       -17.217823075        73.592970432
       119           59.500000         0.000803549       169.160217448       -17.217325902       -17.217830533        70.305187189
       120           60.000000         0.000799433       168.293720473       -17.217675458       -17.217835296        76.250710052
       121           60.500000         0.001158996       243.987766281       -17.217946513       -17.217836532        79.295897953
       122           61.000000         0.001387601       292.112794684       -17.218168366       -17.217834254        48.179718822
       123           61.500000         0.001621928       341.442570676       -17.218355818       -17.217830130        72.349790368
       124           62.000000         0.001608872       338.694024809       -17.218574736       -17.217827652        98.031334691
       125           62.500000         0.001537181       323.601895334       -17.218840174       -17.217829539        53.246485037
       126           63.000000         0.001854397       390.381109653       -17.219163018       -17.217835389        57.237947485
       127           63.500000         0.002341677       492.961501156       -17.219463159       -17.217842320        69.511442179
       128           64.000000         0.002386079       502.308847998       -17.219616333       -17.217846366        47.909503286
       129           64.500000         0.002329019       490.296867559       -17.219564088       -17.217845946        45.077269530
       130           65.000000         0.002316167       487.591206415       -17.219307537       -17.217841629        46.496864817
       131           65.500000         0.001978885       416.587892695       -17.218895923       -17.217835194        60.709179694
